 Entering Gaussian System, Link 0=g09
 Initial command:
 /usr/local/gaussian09A2/g09/l1.exe /tmpdir/bast/326360.service0/Gau-9720.inp -scrdir=/tmpdir/bast/326360.service0/
 Entering Link 1 = /usr/local/gaussian09A2/g09/l1.exe PID=      9721.
  
 Copyright (c) 1988,1990,1992,1993,1995,1998,2003,2009, Gaussian, Inc.
                  All Rights Reserved.
  
 This is part of the Gaussian(R) 09 program.  It is based on
 the Gaussian(R) 03 system (copyright 2003, Gaussian, Inc.),
 the Gaussian(R) 98 system (copyright 1998, Gaussian, Inc.),
 the Gaussian(R) 94 system (copyright 1995, Gaussian, Inc.),
 the Gaussian 92(TM) system (copyright 1992, Gaussian, Inc.),
 the Gaussian 90(TM) system (copyright 1990, Gaussian, Inc.),
 the Gaussian 88(TM) system (copyright 1988, Gaussian, Inc.),
 the Gaussian 86(TM) system (copyright 1986, Carnegie Mellon
 University), and the Gaussian 82(TM) system (copyright 1983,
 Carnegie Mellon University). Gaussian is a federally registered
 trademark of Gaussian, Inc.
  
 This software contains proprietary and confidential information,
 including trade secrets, belonging to Gaussian, Inc.
  
 This software is provided under written license and may be
 used, copied, transmitted, or stored only in accord with that
 written license.
  
 The following legend is applicable only to US Government
 contracts under FAR:
  
                    RESTRICTED RIGHTS LEGEND
  
 Use, reproduction and disclosure by the US Government is
 subject to restrictions as set forth in subparagraphs (a)
 and (c) of the Commercial Computer Software - Restricted
 Rights clause in FAR 52.227-19.
  
 Gaussian, Inc.
 340 Quinnipiac St., Bldg. 40, Wallingford CT 06492
  
  
 ---------------------------------------------------------------
 Warning -- This program may not be used in any manner that
 competes with the business of Gaussian, Inc. or will provide
 assistance to any competitor of Gaussian, Inc.  The licensee
 of this program is prohibited from giving any competitor of
 Gaussian, Inc. access to this program.  By using this program,
 the user acknowledges that Gaussian, Inc. is engaged in the
 business of creating and licensing software in the field of
 computational chemistry and represents and warrants to the
 licensee that it is not a competitor of Gaussian, Inc. and that
 it will not use this program in any manner prohibited above.
 ---------------------------------------------------------------
  

 Cite this work as:
 Gaussian 09, Revision A.02,
 M. J. Frisch, G. W. Trucks, H. B. Schlegel, G. E. Scuseria, 
 M. A. Robb, J. R. Cheeseman, G. Scalmani, V. Barone, B. Mennucci, 
 G. A. Petersson, H. Nakatsuji, M. Caricato, X. Li, H. P. Hratchian, 
 A. F. Izmaylov, J. Bloino, G. Zheng, J. L. Sonnenberg, M. Hada, 
 M. Ehara, K. Toyota, R. Fukuda, J. Hasegawa, M. Ishida, T. Nakajima, 
 Y. Honda, O. Kitao, H. Nakai, T. Vreven, J. A. Montgomery, Jr., 
 J. E. Peralta, F. Ogliaro, M. Bearpark, J. J. Heyd, E. Brothers, 
 K. N. Kudin, V. N. Staroverov, R. Kobayashi, J. Normand, 
 K. Raghavachari, A. Rendell, J. C. Burant, S. S. Iyengar, J. Tomasi, 
 M. Cossi, N. Rega, J. M. Millam, M. Klene, J. E. Knox, J. B. Cross, 
 V. Bakken, C. Adamo, J. Jaramillo, R. Gomperts, R. E. Stratmann, 
 O. Yazyev, A. J. Austin, R. Cammi, C. Pomelli, J. W. Ochterski, 
 R. L. Martin, K. Morokuma, V. G. Zakrzewski, G. A. Voth, 
 P. Salvador, J. J. Dannenberg, S. Dapprich, A. D. Daniels, 
 O. Farkas, J. B. Foresman, J. V. Ortiz, J. Cioslowski, 
 and D. J. Fox, Gaussian, Inc., Wallingford CT, 2009.
 
 ******************************************
 Gaussian 09:  EM64L-G09RevA.02 11-Jun-2009
                16-May-2012 
 ******************************************
 %mem=3500mb
 %NProcLinda=2
 Will use up to    2 processors via Linda.
 %NProcShared=8
 Will use up to    8 processors via shared memory.
 %nosave
 %chk=chk.chk
 ----------------------------------------------------------------------
 #p test guess(read) geom(angle,checkpoint) gfinput prop maxdisk=1900mb
  iop(6/7=3) nosym scf(conver=10) freq(hpmodes,vcd) b3lyp integral(grid
 =ultrafine) gen pseudo(read)
 ----------------------------------------------------------------------
 1/10=4,29=2,30=1,38=1/1,3;
 2/9=20,12=2,15=1,40=1/2;
 3/5=7,11=2,14=-4,16=1,17=8,24=10,25=1,30=1,36=2,71=2,74=-5,75=-5,116=-2/1,2,3;
 4/5=1/1;
 5/5=2,6=10,38=6,98=1/2;
 8/6=4,10=90,11=11/1;
 10/15=4,31=1,46=1/2;
 11/6=1,8=1,9=11,15=111,16=1,31=1/1,2,10;
 10/6=1,31=1,46=1/2;
 6/7=3,8=2,9=2,10=2,18=1,28=1/1,2;
 7/8=11,10=1,25=1,30=1/1,2,3,16;
 1/10=4,30=1/3;
 99//99;
 Leave Link    1 at Wed May 16 14:17:27 2012, MaxMem=  458752000 cpu:       0.5
 (Enter /usr/local/gaussian09A2/g09/l101.exe)
 -----
 title
 -----
 Redundant internal coordinates taken from checkpoint file:
 chk.chk
 Charge =  0 Multiplicity = 1
 S,0,-0.1042571128,-0.0603291688,-0.022909561
 C,0,-0.0208994639,0.0677491506,1.8123732882
 C,0,1.4434200597,-0.0040366022,2.2153163064
 O,0,2.0558308735,-1.0163163854,1.4018188159
 C,0,1.6784777032,-0.3640699873,3.6777667847
 H,0,2.7504971727,-0.4301272804,3.8857087967
 H,0,1.2167899974,-1.3278788363,3.9161145122
 H,0,1.2466644529,0.4047709801,4.3280263109
 H,0,-0.4774340201,1.0161838874,2.1103392329
 H,0,-0.5897116179,-0.7560319926,2.2555432215
 H,0,1.9359970079,0.9482033684,1.9746863181
 Re,0,1.862926388,-1.394996542,-0.4617129927
 O,0,1.7454705171,-3.1060536284,-0.5337621735
 O,0,3.2990606793,-0.73809508,-1.1420558967
 C,0,0.8588519003,-1.150844454,-2.3825083389
 H,0,-0.1345946707,-1.5978572842,-2.3691329446
 H,0,1.5178957291,-1.7019406856,-3.0612331042
 H,0,0.8146244042,-0.1020634594,-2.6764905758
 Recover connectivity data from disk.
                    Isotopes and Nuclear Properties:
 (Nuclear quadrupole moments (NQMom) in fm**2, nuclear magnetic moments (NMagM)
  in nuclear magnetons)

  Atom         1           2           3           4           5           6           7           8           9          10
 IAtWgt=          32          12          12          16          12           1           1           1           1           1
 AtmWgt=  31.9720718  12.0000000  12.0000000  15.9949146  12.0000000   1.0078250   1.0078250   1.0078250   1.0078250   1.0078250
 NucSpn=           0           0           0           0           0           1           1           1           1           1
 AtZEff= -13.6000000  -3.6000000  -3.6000000  -5.6000000  -3.6000000  -1.0000000  -1.0000000  -1.0000000  -1.0000000  -1.0000000
 NQMom=    0.0000000   0.0000000   0.0000000   0.0000000   0.0000000   0.0000000   0.0000000   0.0000000   0.0000000   0.0000000
 NMagM=    0.0000000   0.0000000   0.0000000   0.0000000   0.0000000   2.7928460   2.7928460   2.7928460   2.7928460   2.7928460

  Atom        11          12          13          14          15          16          17          18
 IAtWgt=           1         187          16          16          12           1           1           1
 AtmWgt=   1.0078250 186.9560000  15.9949146  15.9949146  12.0000000   1.0078250   1.0078250   1.0078250
 NucSpn=           1           5           0           0           0           1           1           1
 AtZEff=  -1.0000000************  -5.6000000  -5.6000000  -3.6000000  -1.0000000  -1.0000000  -1.0000000
 NQMom=    0.0000000 207.0000000   0.0000000   0.0000000   0.0000000   0.0000000   0.0000000   0.0000000
 NMagM=    2.7928460   3.2197000   0.0000000   0.0000000   0.0000000   2.7928460   2.7928460   2.7928460
 Leave Link  101 at Wed May 16 14:17:28 2012, MaxMem=  458752000 cpu:       0.5
 (Enter /usr/local/gaussian09A2/g09/l103.exe)

 GradGradGradGradGradGradGradGradGradGradGradGradGradGradGradGradGradGrad
 Berny optimization.
 Initialization pass.
                           ----------------------------
                           !    Initial Parameters    !
                           ! (Angstroms and Degrees)  !
 --------------------------                            --------------------------
 ! Name  Definition              Value          Derivative Info.                !
 --------------------------------------------------------------------------------
 ! R1    R(1,2)                  1.8416         calculate D2E/DX2 analytically  !
 ! R2    R(1,12)                 2.4174         calculate D2E/DX2 analytically  !
 ! R3    R(2,3)                  1.5204         calculate D2E/DX2 analytically  !
 ! R4    R(2,9)                  1.094          calculate D2E/DX2 analytically  !
 ! R5    R(2,10)                 1.0948         calculate D2E/DX2 analytically  !
 ! R6    R(3,4)                  1.4358         calculate D2E/DX2 analytically  !
 ! R7    R(3,5)                  1.5243         calculate D2E/DX2 analytically  !
 ! R8    R(3,11)                 1.0988         calculate D2E/DX2 analytically  !
 ! R9    R(4,12)                 1.9114         calculate D2E/DX2 analytically  !
 ! R10   R(5,6)                  1.094          calculate D2E/DX2 analytically  !
 ! R11   R(5,7)                  1.0949         calculate D2E/DX2 analytically  !
 ! R12   R(5,8)                  1.0956         calculate D2E/DX2 analytically  !
 ! R13   R(12,13)                1.7166         calculate D2E/DX2 analytically  !
 ! R14   R(12,14)                1.7196         calculate D2E/DX2 analytically  !
 ! R15   R(12,15)                2.1811         calculate D2E/DX2 analytically  !
 ! R16   R(15,16)                1.0895         calculate D2E/DX2 analytically  !
 ! R17   R(15,17)                1.0949         calculate D2E/DX2 analytically  !
 ! R18   R(15,18)                1.0901         calculate D2E/DX2 analytically  !
 ! A1    A(2,1,12)             100.513          calculate D2E/DX2 analytically  !
 ! A2    A(1,2,3)              107.7228         calculate D2E/DX2 analytically  !
 ! A3    A(1,2,9)              108.2305         calculate D2E/DX2 analytically  !
 ! A4    A(1,2,10)             109.1205         calculate D2E/DX2 analytically  !
 ! A5    A(3,2,9)              111.7569         calculate D2E/DX2 analytically  !
 ! A6    A(3,2,10)             110.9516         calculate D2E/DX2 analytically  !
 ! A7    A(9,2,10)             108.9825         calculate D2E/DX2 analytically  !
 ! A8    A(2,3,4)              107.0926         calculate D2E/DX2 analytically  !
 ! A9    A(2,3,5)              114.4511         calculate D2E/DX2 analytically  !
 ! A10   A(2,3,11)             109.4385         calculate D2E/DX2 analytically  !
 ! A11   A(4,3,5)              108.1365         calculate D2E/DX2 analytically  !
 ! A12   A(4,3,11)             107.2003         calculate D2E/DX2 analytically  !
 ! A13   A(5,3,11)             110.2226         calculate D2E/DX2 analytically  !
 ! A14   A(3,4,12)             130.4684         calculate D2E/DX2 analytically  !
 ! A15   A(3,5,6)              110.3481         calculate D2E/DX2 analytically  !
 ! A16   A(3,5,7)              110.5928         calculate D2E/DX2 analytically  !
 ! A17   A(3,5,8)              110.0528         calculate D2E/DX2 analytically  !
 ! A18   A(6,5,7)              108.5819         calculate D2E/DX2 analytically  !
 ! A19   A(6,5,8)              108.407          calculate D2E/DX2 analytically  !
 ! A20   A(7,5,8)              108.8029         calculate D2E/DX2 analytically  !
 ! A21   A(1,12,4)              78.2154         calculate D2E/DX2 analytically  !
 ! A22   A(1,12,13)            120.1503         calculate D2E/DX2 analytically  !
 ! A23   A(1,12,14)            122.7206         calculate D2E/DX2 analytically  !
 ! A24   A(1,12,15)             73.9446         calculate D2E/DX2 analytically  !
 ! A25   A(4,12,13)            104.2            calculate D2E/DX2 analytically  !
 ! A26   A(4,12,14)            103.0483         calculate D2E/DX2 analytically  !
 ! A27   A(4,12,15)            151.993          calculate D2E/DX2 analytically  !
 ! A28   A(13,12,14)           114.9183         calculate D2E/DX2 analytically  !
 ! A29   A(13,12,15)            92.4712         calculate D2E/DX2 analytically  !
 ! A30   A(14,12,15)            89.6151         calculate D2E/DX2 analytically  !
 ! A31   A(12,15,16)           111.2868         calculate D2E/DX2 analytically  !
 ! A32   A(12,15,17)           102.2679         calculate D2E/DX2 analytically  !
 ! A33   A(12,15,18)           111.3381         calculate D2E/DX2 analytically  !
 ! A34   A(16,15,17)           110.4859         calculate D2E/DX2 analytically  !
 ! A35   A(16,15,18)           111.1657         calculate D2E/DX2 analytically  !
 ! A36   A(17,15,18)           109.9689         calculate D2E/DX2 analytically  !
 ! D1    D(12,1,2,3)            29.2378         calculate D2E/DX2 analytically  !
 ! D2    D(12,1,2,9)           150.2328         calculate D2E/DX2 analytically  !
 ! D3    D(12,1,2,10)          -91.3            calculate D2E/DX2 analytically  !
 ! D4    D(2,1,12,4)            -8.1837         calculate D2E/DX2 analytically  !
 ! D5    D(2,1,12,13)           91.5234         calculate D2E/DX2 analytically  !
 ! D6    D(2,1,12,14)         -106.2367         calculate D2E/DX2 analytically  !
 ! D7    D(2,1,12,15)          174.9037         calculate D2E/DX2 analytically  !
 ! D8    D(1,2,3,4)            -41.317          calculate D2E/DX2 analytically  !
 ! D9    D(1,2,3,5)           -161.1564         calculate D2E/DX2 analytically  !
 ! D10   D(1,2,3,11)            74.57           calculate D2E/DX2 analytically  !
 ! D11   D(9,2,3,4)           -160.0784         calculate D2E/DX2 analytically  !
 ! D12   D(9,2,3,5)             80.0822         calculate D2E/DX2 analytically  !
 ! D13   D(9,2,3,11)           -44.1913         calculate D2E/DX2 analytically  !
 ! D14   D(10,2,3,4)            78.0622         calculate D2E/DX2 analytically  !
 ! D15   D(10,2,3,5)           -41.7772         calculate D2E/DX2 analytically  !
 ! D16   D(10,2,3,11)         -166.0508         calculate D2E/DX2 analytically  !
 ! D17   D(2,3,4,12)            42.3985         calculate D2E/DX2 analytically  !
 ! D18   D(5,3,4,12)           166.2062         calculate D2E/DX2 analytically  !
 ! D19   D(11,3,4,12)          -74.9668         calculate D2E/DX2 analytically  !
 ! D20   D(2,3,5,6)            178.0917         calculate D2E/DX2 analytically  !
 ! D21   D(2,3,5,7)             57.932          calculate D2E/DX2 analytically  !
 ! D22   D(2,3,5,8)            -62.3119         calculate D2E/DX2 analytically  !
 ! D23   D(4,3,5,6)             58.837          calculate D2E/DX2 analytically  !
 ! D24   D(4,3,5,7)            -61.3227         calculate D2E/DX2 analytically  !
 ! D25   D(4,3,5,8)            178.4334         calculate D2E/DX2 analytically  !
 ! D26   D(11,3,5,6)           -58.0529         calculate D2E/DX2 analytically  !
 ! D27   D(11,3,5,7)          -178.2127         calculate D2E/DX2 analytically  !
 ! D28   D(11,3,5,8)            61.5435         calculate D2E/DX2 analytically  !
 ! D29   D(3,4,12,1)           -18.4028         calculate D2E/DX2 analytically  !
 ! D30   D(3,4,12,13)         -136.8576         calculate D2E/DX2 analytically  !
 ! D31   D(3,4,12,14)          102.8265         calculate D2E/DX2 analytically  !
 ! D32   D(3,4,12,15)          -12.0747         calculate D2E/DX2 analytically  !
 ! D33   D(1,12,15,16)         -62.2202         calculate D2E/DX2 analytically  !
 ! D34   D(1,12,15,17)         179.8038         calculate D2E/DX2 analytically  !
 ! D35   D(1,12,15,18)          62.4065         calculate D2E/DX2 analytically  !
 ! D36   D(4,12,15,16)         -68.6669         calculate D2E/DX2 analytically  !
 ! D37   D(4,12,15,17)         173.357          calculate D2E/DX2 analytically  !
 ! D38   D(4,12,15,18)          55.9598         calculate D2E/DX2 analytically  !
 ! D39   D(13,12,15,16)         58.4918         calculate D2E/DX2 analytically  !
 ! D40   D(13,12,15,17)        -59.4842         calculate D2E/DX2 analytically  !
 ! D41   D(13,12,15,18)       -176.8815         calculate D2E/DX2 analytically  !
 ! D42   D(14,12,15,16)        173.4172         calculate D2E/DX2 analytically  !
 ! D43   D(14,12,15,17)         55.4411         calculate D2E/DX2 analytically  !
 ! D44   D(14,12,15,18)        -61.9561         calculate D2E/DX2 analytically  !
 --------------------------------------------------------------------------------
 Trust Radius=3.00D-01 FncErr=1.00D-07 GrdErr=1.00D-07
 Number of steps in this run=   2 maximum allowed number of steps=   2.
 GradGradGradGradGradGradGradGradGradGradGradGradGradGradGradGradGradGrad

 Leave Link  103 at Wed May 16 14:17:28 2012, MaxMem=  458752000 cpu:       0.1
 (Enter /usr/local/gaussian09A2/g09/l202.exe)
                          Input orientation:                          
 ---------------------------------------------------------------------
 Center     Atomic      Atomic             Coordinates (Angstroms)
 Number     Number       Type             X           Y           Z
 ---------------------------------------------------------------------
      1         16           0       -0.104257   -0.060329   -0.022910
      2          6           0       -0.020899    0.067749    1.812373
      3          6           0        1.443420   -0.004037    2.215316
      4          8           0        2.055831   -1.016316    1.401819
      5          6           0        1.678478   -0.364070    3.677767
      6          1           0        2.750497   -0.430127    3.885709
      7          1           0        1.216790   -1.327879    3.916115
      8          1           0        1.246664    0.404771    4.328026
      9          1           0       -0.477434    1.016184    2.110339
     10          1           0       -0.589712   -0.756032    2.255543
     11          1           0        1.935997    0.948203    1.974686
     12         75           0        1.862926   -1.394997   -0.461713
     13          8           0        1.745471   -3.106054   -0.533762
     14          8           0        3.299061   -0.738095   -1.142056
     15          6           0        0.858852   -1.150844   -2.382508
     16          1           0       -0.134595   -1.597857   -2.369133
     17          1           0        1.517896   -1.701941   -3.061233
     18          1           0        0.814624   -0.102063   -2.676491
 ---------------------------------------------------------------------
                    Distance matrix (angstroms):
                    1          2          3          4          5
     1  S    0.000000
     2  C    1.841634   0.000000
     3  C    2.721788   1.520443   0.000000
     4  O    2.758576   2.378353   1.435805   0.000000
     5  C    4.118909   2.560087   1.524348   2.397449   0.000000
     6  H    4.854242   3.496747   2.163380   2.644974   1.093997
     7  H    4.343703   2.811651   2.167172   2.668847   1.094940
     8  H    4.579514   2.837043   2.160875   3.352153   1.095635
     9  H    2.418448   1.093954   2.177510   3.324228   3.001647
    10  H    2.431258   1.094789   2.168119   2.792040   2.705741
    11  H    3.028228   2.151973   1.098770   2.049848   2.165378
    12  Re   2.417374   3.295435   3.045856   1.911377   4.269909
    13  O    3.599847   4.324053   4.155861   2.865275   5.025927
    14  O    3.646152   4.516655   3.905662   2.845053   5.098713
    15  C    2.772095   4.456003   4.774608   3.971396   6.165852
    16  H    2.805295   4.502462   5.103682   4.399572   6.432298
    17  H    3.815453   5.408487   5.543501   4.547338   6.872394
    18  H    2.808483   4.569118   4.933028   4.359938   6.418059
                    6          7          8          9         10
     6  H    0.000000
     7  H    1.777397   0.000000
     8  H    1.776010   1.781190   0.000000
     9  H    3.957688   3.409670   2.874800   0.000000
    10  H    3.731039   2.519515   3.002487   1.781696   0.000000
    11  H    2.493033   3.076841   2.511714   2.418196   3.059821
    12  Re   4.540796   4.425762   5.153692   4.231611   3.715803
    13  O    5.263305   4.821080   6.017614   5.378236   4.330808
    14  O    5.066970   5.501707   5.953173   5.283700   5.163967
    15  C    6.586980   6.311269   6.899392   5.164044   4.875011
    16  H    6.986444   6.434552   7.125331   5.197732   4.722651
    17  H    7.169157   6.993852   7.688495   6.173711   5.796970
    18  H    6.849649   6.717649   7.036107   5.082680   5.169603
                   11         12         13         14         15
    11  H    0.000000
    12  Re   3.381119   0.000000
    13  O    4.771333   1.716596   0.000000
    14  O    3.796792   1.719555   2.896704   0.000000
    15  C    4.954936   2.181108   2.833160   2.768339   0.000000
    16  H    5.444129   2.769385   3.029503   3.746318   1.089466
    17  H    5.706011   2.640221   2.900247   2.790123   1.094858
    18  H    4.898365   2.770533   3.805485   2.988553   1.090102
                   16         17         18
    16  H    0.000000
    17  H    1.794592   0.000000
    18  H    1.798022   1.789476   0.000000
                           Interatomic angles:
       S1-C2-C3=107.7228       S1-C2-O4= 80.5491       S1-C3-O4= 76.2335
       C2-C3-O4=107.0926       S1-C2-C5=138.1116       S1-C3-C5=150.6618
       C2-C3-C5=114.4511       S1-O4-C5=105.8289       C2-O4-C5= 64.8294
       O4-C3-C5=108.1365       S1-C3-H6=167.0137       C2-C3-H6=142.7313
       S1-O4-H6=127.8699       C2-O4-H6= 88.0632       O4-C3-H6= 92.3445
       C2-C5-H6=143.0484       C3-C5-H6=110.3481       O4-C5-H6= 90.5603
       S1-C2-H7=136.9742       S1-C3-H7=124.9788       C2-C3-H7= 97.823 
       S1-O4-H7=106.3106       C2-O4-H7= 67.4228       O4-C3-H7= 93.3584
       C2-C5-H7= 91.5582       C3-C5-H7=110.5928       O4-C5-H7= 91.9221
       C2-H7-H6= 96.6805       C3-H6-H7= 65.8795       O4-H6-H7= 71.1856
       H6-C5-H7=108.5819       S1-C2-H8=155.8032       S1-C3-H8=139.1255
       C2-C3-H8= 99.3512       O4-C2-H8= 79.4604       O4-C3-H8=136.5662
       C2-C5-H8= 93.0077       C3-C5-H8=110.0528       O4-C5-H8=144.7228
       C2-H8-H6= 95.8334       C3-H8-H6= 65.8243       O4-H6-H8= 96.6429
       H6-C5-H8=108.407        C2-H7-H8= 72.3963       C3-H8-H7= 65.8828
       O4-H7-H8= 95.6835       H7-C5-H8=108.8029       H7-H6-H8= 60.1671
       S1-C2-H9=108.2305       S1-H9-C3= 72.4135       C3-C2-H9=111.7569
       O4-S1-H9= 79.6022       O4-C2-H9=143.7642       O4-C3-H9=132.7861
       S1-H9-C5= 98.343        C5-C2-H9=102.9906       C5-C3-H9=107.034 
       O4-C5-H9= 75.0738       H6-C3-H9=131.4887       H6-C5-H9=146.1846
       H7-C2-H9=114.2208       H7-C3-H9=103.4026       H7-C5-H9=102.4497
       S1-H9-H8=119.5539       H8-C2-H9= 80.906        H8-C3-H9= 83.0026
       C5-H8-H9= 85.8579       H6-H8-H9=114.5618       H7-H8-H9= 91.056 
      S1-C2-H10=109.1205      S1-H10-C3= 72.3094      C3-C2-H10=110.9516
      O4-S1-H10= 64.7338      O4-C2-H10=100.4033      O4-C3-H10= 99.5525
      S1-H10-C5=106.4848      C5-C2-H10= 85.5844      C5-C3-H10= 92.5723
      O4-C5-H10= 66.0174      H6-C3-H10=118.9422      H6-O4-H10= 86.6203
      H6-C5-H10=155.8685      S1-H10-H7=122.6456      C2-H10-H7= 93.7298
      H7-C3-H10= 71.0649      O4-H7-H10= 65.0391      C5-H7-H10= 87.6544
      H6-H7-H10=119.5238      S1-H10-H8=114.4639      H8-C2-H10= 87.8555
      H8-C3-H10= 87.8276      O4-H10-H8= 70.584       H8-C5-H10= 94.7743
      H6-H8-H10= 99.4526      H8-H7-H10= 86.7703      S1-H9-H10= 68.8294
      H9-C2-H10=108.9825      C3-H10-H9= 66.0711      O4-H10-H9= 90.4639
      C5-H10-H9= 81.1365      H7-H10-H9=103.5498      H8-H9-H10= 76.3126
      S1-C2-H11= 98.3245      S1-C3-H11= 95.3216      C2-C3-H11=109.4385
      S1-O4-H11= 76.493       C2-H11-O4= 68.8982      O4-C3-H11=107.2003
      C2-H11-C5= 72.7362      C5-C3-H11=110.2226      O4-H11-C5= 69.2652
      C2-H11-H6= 97.395       H6-C3-H11= 93.9525      O4-H11-H6= 70.4437
      H6-C5-H11= 93.9882      H7-C2-H11= 75.3066      H7-C3-H11=138.4303
      H7-O4-H11= 80.2248      H7-C5-H11=139.0079      H7-H6-H11= 90.5987
      C2-H11-H8= 74.4892      H8-C3-H11= 95.22        O4-H11-H8= 94.0449
      H8-C5-H11= 95.0713      H8-H6-H11= 69.7793      H7-H8-H11= 89.9078
      S1-H9-H11= 77.5261      H9-C2-H11= 90.2427      H9-C3-H11= 88.7885
      O4-H11-H9= 95.7947      C5-H11-H9= 81.6178      H6-H11-H9=107.374 
      H8-H11-H9= 71.3139     H10-C2-H11=138.5723     H10-C3-H11=136.4721
     H10-O4-H11= 76.6918     H10-C5-H11= 76.9426     H10-H8-H11= 66.7198
     H10-H9-H11= 92.2639     C2-S1-Re12=100.513      C3-S1-Re12= 72.4199
     S1-Re12-O4= 78.2154     C2-O4-Re12= 99.8157     C3-O4-Re12=130.4684
     C5-O4-Re12=164.4876     H6-O4-Re12=170.4031     H7-O4-Re12=149.729 
     H9-S1-Re12=122.103     H10-S1-Re12=100.0561    H10-O4-Re12=102.7653
    H11-O4-Re12=117.1579      S1-O4-O13= 79.5743      C2-O4-O13=110.7606
      C3-O4-O13=148.2922      C5-O4-O13=145.3527      H6-O4-O13=145.5353
      H7-O4-O13=121.1456     H10-O4-O13= 99.8991     H11-O4-O13=151.8153
    S1-Re12-O13=120.1503    O4-Re12-O13=104.2         S1-O4-O14= 81.1694
      C2-O4-O14=119.4284      C3-O4-O14=128.6117      C5-O4-O14=152.9992
      H6-O4-O14=134.688       H7-O4-O14=172.3742     H10-O4-O14=132.7138
     H11-O4-O14=100.4693    S1-Re12-O14=122.7206    O4-Re12-O14=103.0483
     O13-O4-O14= 60.9637   O13-Re12-O14=114.9183      C2-S1-C15=149.3048
      C3-S1-C15=120.7004      O4-S1-C15= 91.79        H9-S1-C15=168.3889
     H10-S1-C15=138.9819    S1-Re12-C15= 73.9446    O4-Re12-C15=151.993 
     S1-C15-O13= 79.9081     O4-O13-C15= 88.3602   O13-Re12-C15= 92.4712
     S1-C15-O14= 82.31       O4-O14-C15= 90.0508   O14-Re12-C15= 89.6151
    O13-C15-O14= 62.2672      C2-S1-H16=150.701       C3-S1-H16=134.8498
      O4-S1-H16=104.5062      H9-S1-H16=168.5283     H10-S1-H16=128.6674
    S1-Re12-H16= 65.071     O4-Re12-H16=139.3602   O13-Re12-H16= 81.2991
   O14-Re12-H16=110.9701     S1-C15-H16= 80.4534   Re12-C15-H16=111.2868
    O13-C15-H16= 89.6673    O14-C15-H16=149.2556    S1-Re12-H17= 97.8491
    O4-Re12-H17=174.9774     O4-O13-H17=104.129    O13-Re12-H17= 80.436 
     O4-O14-H17=107.5952   O14-Re12-H17= 76.3497    O13-O14-H17= 61.2929
     S1-C15-H17=159.1993   Re12-C15-H17=102.2679    O13-C15-H17= 82.4598
    O14-C15-H17= 79.76       S1-H16-H17=110.1438   Re12-H17-H16= 74.5664
    O13-H17-H16= 76.3638    O14-H17-H16=107.6092    H16-C15-H17=110.4859
      C2-S1-H18=158.0961      C3-S1-H18=126.2454      O4-S1-H18=103.0993
      H9-S1-H18=152.939      H10-S1-H18=161.1802    S1-Re12-H18= 65.1364
    O4-Re12-H18=136.4792   O13-Re12-H18=113.9365     S1-H18-O14= 77.8797
     O4-O14-H18= 96.6975   O14-Re12-H18= 79.7146    O13-O14-H18= 80.557 
     S1-C15-H18= 80.6177   Re12-C15-H18=111.3381    O13-C15-H18=148.4991
    O14-C15-H18= 90.754      S1-H16-H18= 71.416    Re12-H16-H18= 71.0958
    O14-H18-H16=100.0237    H16-C15-H18=111.1657     S1-H18-H17=110.1826
   Re12-H17-H18= 74.6765    O13-H17-H18=106.0401    O14-H17-H18= 78.1207
    H17-C15-H18=109.9689    H16-H17-H18= 60.221 
 Symmetry turned off by external request.
 Stoichiometry    C4H9O3ReS
 Framework group  C1[X(C4H9O3ReS)]
 Deg. of freedom    48
 Full point group                 C1      NOp   1
 Rotational constants (GHZ):      1.6654515      0.7658823      0.6241758
 Leave Link  202 at Wed May 16 14:17:28 2012, MaxMem=  458752000 cpu:       0.0
 (Enter /usr/local/gaussian09A2/g09/l301.exe)
 General basis read from cards:  (5D, 7F)
 Centers:   6  7  8  9 10 11 16 17 18  2  3  5 15  4 13 14  1
 6-31G(d)
 ****
 Centers:  12
 S 3 1.00
     Exponent=  1.4781862000D+01 Coefficients= -1.1410382000D+00
     Exponent=  1.2324075000D+01 Coefficients=  1.9371450000D+00
     Exponent=  5.4974780000D+00 Coefficients= -1.7232745000D+00
 S 1 1.00
     Exponent=  1.0260520000D+00 Coefficients=  1.0000000000D+00
 S 1 1.00
     Exponent=  4.6900900000D-01 Coefficients=  1.0000000000D+00
 S 1 1.00
     Exponent=  1.3118400000D-01 Coefficients=  1.0000000000D+00
 S 1 1.00
     Exponent=  4.7857000000D-02 Coefficients=  1.0000000000D+00
 S 1 1.00
     Exponent=  1.5000000000D-02 Coefficients=  1.0000000000D+00
 P 2 1.00
     Exponent=  7.4040050000D+00 Coefficients=  2.3698360000D+00
     Exponent=  6.3502060000D+00 Coefficients= -3.3105542000D+00
 P 2 1.00
     Exponent=  1.8885990000D+00 Coefficients=  1.8219610000D-01
     Exponent=  9.8348500000D-01 Coefficients=  8.3630770000D-01
 P 1 1.00
     Exponent=  3.8341000000D-01 Coefficients=  1.0000000000D+00
 P 1 1.00
     Exponent=  7.0460000000D-02 Coefficients=  1.0000000000D+00
 P 1 1.00
     Exponent=  2.2028000000D-02 Coefficients=  1.0000000000D+00
 D 4 1.00
     Exponent=  3.4344820000D+00 Coefficients= -3.6267070000D-01
     Exponent=  2.9807810000D+00 Coefficients=  3.7616960000D-01
     Exponent=  1.0173940000D+00 Coefficients=  4.5783320000D-01
     Exponent=  3.9506000000D-01 Coefficients=  5.9957020000D-01
 D 1 1.00
     Exponent=  1.3011100000D-01 Coefficients=  1.0000000000D+00
 D 1 1.00
     Exponent=  4.0000000000D-02 Coefficients=  1.0000000000D+00
 ****
 Ernie: Thresh=  0.10000D-02 Tol=  0.10000D-05 Strict=F.
 AO basis set in the form of general basis input (Overlap normalization):
      1 0
 S   6 1.00       0.000000000000
      0.2191710000D+05  0.1869240849D-02
      0.3301490000D+04  0.1423030646D-01
      0.7541460000D+03  0.6969623166D-01
      0.2127110000D+03  0.2384871083D+00
      0.6798960000D+02  0.4833072195D+00
      0.2305150000D+02  0.3380741536D+00
 SP   6 1.00       0.000000000000
      0.4237350000D+03 -0.2376770499D-02  0.4061009982D-02
      0.1007100000D+03 -0.3169300665D-01  0.3068129986D-01
      0.3215990000D+02 -0.1133170238D+00  0.1304519994D+00
      0.1180790000D+02  0.5609001177D-01  0.3272049985D+00
      0.4631100000D+01  0.5922551243D+00  0.4528509980D+00
      0.1870250000D+01  0.4550060955D+00  0.2560419989D+00
 SP   3 1.00       0.000000000000
      0.2615840000D+01 -0.2503731142D+00 -0.1451048955D-01
      0.9221670000D+00  0.6695676310D-01  0.3102627765D+00
      0.3412870000D+00  0.1054506269D+01  0.7544824565D+00
 SP   1 1.00       0.000000000000
      0.1171670000D+00  0.1000000000D+01  0.1000000000D+01
 D   1 1.00       0.000000000000
      0.6500000000D+00  0.1000000000D+01
 ****
      2 0
 S   6 1.00       0.000000000000
      0.3047524880D+04  0.1834737132D-02
      0.4573695180D+03  0.1403732281D-01
      0.1039486850D+03  0.6884262226D-01
      0.2921015530D+02  0.2321844432D+00
      0.9286662960D+01  0.4679413484D+00
      0.3163926960D+01  0.3623119853D+00
 SP   3 1.00       0.000000000000
      0.7868272350D+01 -0.1193324198D+00  0.6899906659D-01
      0.1881288540D+01 -0.1608541517D+00  0.3164239610D+00
      0.5442492580D+00  0.1143456438D+01  0.7443082909D+00
 SP   1 1.00       0.000000000000
      0.1687144782D+00  0.1000000000D+01  0.1000000000D+01
 D   1 1.00       0.000000000000
      0.8000000000D+00  0.1000000000D+01
 ****
      3 0
 S   6 1.00       0.000000000000
      0.3047524880D+04  0.1834737132D-02
      0.4573695180D+03  0.1403732281D-01
      0.1039486850D+03  0.6884262226D-01
      0.2921015530D+02  0.2321844432D+00
      0.9286662960D+01  0.4679413484D+00
      0.3163926960D+01  0.3623119853D+00
 SP   3 1.00       0.000000000000
      0.7868272350D+01 -0.1193324198D+00  0.6899906659D-01
      0.1881288540D+01 -0.1608541517D+00  0.3164239610D+00
      0.5442492580D+00  0.1143456438D+01  0.7443082909D+00
 SP   1 1.00       0.000000000000
      0.1687144782D+00  0.1000000000D+01  0.1000000000D+01
 D   1 1.00       0.000000000000
      0.8000000000D+00  0.1000000000D+01
 ****
      4 0
 S   6 1.00       0.000000000000
      0.5484671660D+04  0.1831074430D-02
      0.8252349460D+03  0.1395017220D-01
      0.1880469580D+03  0.6844507810D-01
      0.5296450000D+02  0.2327143360D+00
      0.1689757040D+02  0.4701928980D+00
      0.5799635340D+01  0.3585208530D+00
 SP   3 1.00       0.000000000000
      0.1553961625D+02 -0.1107775495D+00  0.7087426823D-01
      0.3599933586D+01 -0.1480262627D+00  0.3397528391D+00
      0.1013761750D+01  0.1130767015D+01  0.7271585773D+00
 SP   1 1.00       0.000000000000
      0.2700058226D+00  0.1000000000D+01  0.1000000000D+01
 D   1 1.00       0.000000000000
      0.8000000000D+00  0.1000000000D+01
 ****
      5 0
 S   6 1.00       0.000000000000
      0.3047524880D+04  0.1834737132D-02
      0.4573695180D+03  0.1403732281D-01
      0.1039486850D+03  0.6884262226D-01
      0.2921015530D+02  0.2321844432D+00
      0.9286662960D+01  0.4679413484D+00
      0.3163926960D+01  0.3623119853D+00
 SP   3 1.00       0.000000000000
      0.7868272350D+01 -0.1193324198D+00  0.6899906659D-01
      0.1881288540D+01 -0.1608541517D+00  0.3164239610D+00
      0.5442492580D+00  0.1143456438D+01  0.7443082909D+00
 SP   1 1.00       0.000000000000
      0.1687144782D+00  0.1000000000D+01  0.1000000000D+01
 D   1 1.00       0.000000000000
      0.8000000000D+00  0.1000000000D+01
 ****
      6 0
 S   3 1.00       0.000000000000
      0.1873113696D+02  0.3349460434D-01
      0.2825394365D+01  0.2347269535D+00
      0.6401216923D+00  0.8137573261D+00
 S   1 1.00       0.000000000000
      0.1612777588D+00  0.1000000000D+01
 ****
      7 0
 S   3 1.00       0.000000000000
      0.1873113696D+02  0.3349460434D-01
      0.2825394365D+01  0.2347269535D+00
      0.6401216923D+00  0.8137573261D+00
 S   1 1.00       0.000000000000
      0.1612777588D+00  0.1000000000D+01
 ****
      8 0
 S   3 1.00       0.000000000000
      0.1873113696D+02  0.3349460434D-01
      0.2825394365D+01  0.2347269535D+00
      0.6401216923D+00  0.8137573261D+00
 S   1 1.00       0.000000000000
      0.1612777588D+00  0.1000000000D+01
 ****
      9 0
 S   3 1.00       0.000000000000
      0.1873113696D+02  0.3349460434D-01
      0.2825394365D+01  0.2347269535D+00
      0.6401216923D+00  0.8137573261D+00
 S   1 1.00       0.000000000000
      0.1612777588D+00  0.1000000000D+01
 ****
     10 0
 S   3 1.00       0.000000000000
      0.1873113696D+02  0.3349460434D-01
      0.2825394365D+01  0.2347269535D+00
      0.6401216923D+00  0.8137573261D+00
 S   1 1.00       0.000000000000
      0.1612777588D+00  0.1000000000D+01
 ****
     11 0
 S   3 1.00       0.000000000000
      0.1873113696D+02  0.3349460434D-01
      0.2825394365D+01  0.2347269535D+00
      0.6401216923D+00  0.8137573261D+00
 S   1 1.00       0.000000000000
      0.1612777588D+00  0.1000000000D+01
 ****
     12 0
 S   3 1.00       0.000000000000
      0.1478186200D+02 -0.1141038155D+01
      0.1232407500D+02  0.1937144924D+01
      0.5497478000D+01 -0.1723274432D+01
 S   1 1.00       0.000000000000
      0.1026052000D+01  0.1000000000D+01
 S   1 1.00       0.000000000000
      0.4690090000D+00  0.1000000000D+01
 S   1 1.00       0.000000000000
      0.1311840000D+00  0.1000000000D+01
 S   1 1.00       0.000000000000
      0.4785700000D-01  0.1000000000D+01
 S   1 1.00       0.000000000000
      0.1500000000D-01  0.1000000000D+01
 P   2 1.00       0.000000000000
      0.7404005000D+01  0.2369835972D+01
      0.6350206000D+01 -0.3310554161D+01
 P   2 1.00       0.000000000000
      0.1888599000D+01  0.1821960997D+00
      0.9834850000D+00  0.8363076987D+00
 P   1 1.00       0.000000000000
      0.3834100000D+00  0.1000000000D+01
 P   1 1.00       0.000000000000
      0.7046000000D-01  0.1000000000D+01
 P   1 1.00       0.000000000000
      0.2202800000D-01  0.1000000000D+01
 D   4 1.00       0.000000000000
      0.3434482000D+01 -0.3626707068D+00
      0.2980781000D+01  0.3761696070D+00
      0.1017394000D+01  0.4578332085D+00
      0.3950600000D+00  0.5995702112D+00
 D   1 1.00       0.000000000000
      0.1301110000D+00  0.1000000000D+01
 D   1 1.00       0.000000000000
      0.4000000000D-01  0.1000000000D+01
 ****
     13 0
 S   6 1.00       0.000000000000
      0.5484671660D+04  0.1831074430D-02
      0.8252349460D+03  0.1395017220D-01
      0.1880469580D+03  0.6844507810D-01
      0.5296450000D+02  0.2327143360D+00
      0.1689757040D+02  0.4701928980D+00
      0.5799635340D+01  0.3585208530D+00
 SP   3 1.00       0.000000000000
      0.1553961625D+02 -0.1107775495D+00  0.7087426823D-01
      0.3599933586D+01 -0.1480262627D+00  0.3397528391D+00
      0.1013761750D+01  0.1130767015D+01  0.7271585773D+00
 SP   1 1.00       0.000000000000
      0.2700058226D+00  0.1000000000D+01  0.1000000000D+01
 D   1 1.00       0.000000000000
      0.8000000000D+00  0.1000000000D+01
 ****
     14 0
 S   6 1.00       0.000000000000
      0.5484671660D+04  0.1831074430D-02
      0.8252349460D+03  0.1395017220D-01
      0.1880469580D+03  0.6844507810D-01
      0.5296450000D+02  0.2327143360D+00
      0.1689757040D+02  0.4701928980D+00
      0.5799635340D+01  0.3585208530D+00
 SP   3 1.00       0.000000000000
      0.1553961625D+02 -0.1107775495D+00  0.7087426823D-01
      0.3599933586D+01 -0.1480262627D+00  0.3397528391D+00
      0.1013761750D+01  0.1130767015D+01  0.7271585773D+00
 SP   1 1.00       0.000000000000
      0.2700058226D+00  0.1000000000D+01  0.1000000000D+01
 D   1 1.00       0.000000000000
      0.8000000000D+00  0.1000000000D+01
 ****
     15 0
 S   6 1.00       0.000000000000
      0.3047524880D+04  0.1834737132D-02
      0.4573695180D+03  0.1403732281D-01
      0.1039486850D+03  0.6884262226D-01
      0.2921015530D+02  0.2321844432D+00
      0.9286662960D+01  0.4679413484D+00
      0.3163926960D+01  0.3623119853D+00
 SP   3 1.00       0.000000000000
      0.7868272350D+01 -0.1193324198D+00  0.6899906659D-01
      0.1881288540D+01 -0.1608541517D+00  0.3164239610D+00
      0.5442492580D+00  0.1143456438D+01  0.7443082909D+00
 SP   1 1.00       0.000000000000
      0.1687144782D+00  0.1000000000D+01  0.1000000000D+01
 D   1 1.00       0.000000000000
      0.8000000000D+00  0.1000000000D+01
 ****
     16 0
 S   3 1.00       0.000000000000
      0.1873113696D+02  0.3349460434D-01
      0.2825394365D+01  0.2347269535D+00
      0.6401216923D+00  0.8137573261D+00
 S   1 1.00       0.000000000000
      0.1612777588D+00  0.1000000000D+01
 ****
     17 0
 S   3 1.00       0.000000000000
      0.1873113696D+02  0.3349460434D-01
      0.2825394365D+01  0.2347269535D+00
      0.6401216923D+00  0.8137573261D+00
 S   1 1.00       0.000000000000
      0.1612777588D+00  0.1000000000D+01
 ****
     18 0
 S   3 1.00       0.000000000000
      0.1873113696D+02  0.3349460434D-01
      0.2825394365D+01  0.2347269535D+00
      0.6401216923D+00  0.8137573261D+00
 S   1 1.00       0.000000000000
      0.1612777588D+00  0.1000000000D+01
 ****

 ======================================================================================================
                                       Pseudopotential Parameters
 ======================================================================================================
  Center     Atomic      Valence      Angular      Power
  Number     Number     Electrons     Momentum     of R      Exponent        Coefficient   SO-Coeffient
 ======================================================================================================
    1         16
                                   No pseudopotential on this center.
    2          6
                                   No pseudopotential on this center.
    3          6
                                   No pseudopotential on this center.
    4          8
                                   No pseudopotential on this center.
    5          6
                                   No pseudopotential on this center.
    6          1
                                   No pseudopotential on this center.
    7          1
                                   No pseudopotential on this center.
    8          1
                                   No pseudopotential on this center.
    9          1
                                   No pseudopotential on this center.
   10          1
                                   No pseudopotential on this center.
   11          1
                                   No pseudopotential on this center.
   12         75           15
                                      H and up 
                                                     2        1.0000000        0.00000000    0.00000000
                                      S - H
                                                     2       14.0993050     1038.95157200    0.00000000
                                                     2        7.0496530       29.56173800    0.00000000
                                      P - H
                                                     2       10.1077170      339.54351000    0.00000000
                                                     2        5.0538580       24.91369600    0.00000000
                                      D - H
                                                     2        6.8486180      111.69965300    0.00000000
                                                     2        3.4243090       12.62432900    0.00000000
                                      F - H
                                                     2        2.5086510       16.44985200    0.00000000
                                      G - H
                                                     2        3.9012450      -16.50112000    0.00000000
   13          8
                                   No pseudopotential on this center.
   14          8
                                   No pseudopotential on this center.
   15          6
                                   No pseudopotential on this center.
   16          1
                                   No pseudopotential on this center.
   17          1
                                   No pseudopotential on this center.
   18          1
                                   No pseudopotential on this center.
 ======================================================================================================
 Integral buffers will be    131072 words long.
 Raffenetti 2 integral format.
 Two-electron integral symmetry is turned off.
   170 basis functions,   349 primitive gaussians,   181 cartesian basis functions
    44 alpha electrons       44 beta electrons
       nuclear repulsion energy       668.5910588391 Hartrees.
 IExCor=  402 DFT=T Ex+Corr=B3LYP ExCW=0 ScaHFX=  0.200000
 ScaDFX=  0.800000  0.720000  1.000000  0.810000 ScalE2=  1.000000  1.000000
 IRadAn=      5 IRanWt=     -1 IRanGd=            0 ICorTp=0
 NAtoms=   18 NActive=   18 NUniq=   18 SFac= 7.50D-01 NAtFMM=   80 NAOKFM=F Big=F
 Leave Link  301 at Wed May 16 14:17:28 2012, MaxMem=  458752000 cpu:       0.4
 (Enter /usr/local/gaussian09A2/g09/linda-exe/l302.exel)
 NPDir=0 NMtPBC=     1 NCelOv=     1 NCel=       1 NClECP=     1 NCelD=      1
         NCelK=      1 NCelE2=     1 NClLst=     1 CellRange=     0.0.
 One-electron integrals computed using PRISM.
   1 Symmetry operations used in ECPInt.
 ECPInt:  NShTT=    2145 NPrTT=   11673 LenC2=    2098 LenP2D=    7970.
 LDataN:  DoStor=T MaxTD1= 7 Len=  274
 NBasis=   170 RedAO= T  NBF=   170
 NBsUse=   170 1.00D-06 NBFU=   170
 Precomputing XC quadrature grid using
 IXCGrd= 2 IRadAn=           5 IRanWt=          -1 IRanGd=           0 AccXCQ= 1.00D-10.
 Defaulting to unpruned grid for atomic number  75.
 NRdTot=    1554 NPtTot=      443542 NUsed=      454667 NTot=      454699
 NSgBfM=   180   180   180   180   180 NAtAll=    18    18.
 Leave Link  302 at Wed May 16 14:17:31 2012, MaxMem=  458752000 cpu:      13.8
 (Enter /usr/local/gaussian09A2/g09/l303.exe)
 DipDrv:  MaxL=2.
 Leave Link  303 at Wed May 16 14:17:31 2012, MaxMem=  458752000 cpu:       0.7
 (Enter /usr/local/gaussian09A2/g09/linda-exe/l401.exel)
 Initial guess read from the checkpoint file:  chk.chk
 B after Tr=     0.000000    0.000000    0.000000
         Rot=    1.000000    0.000000    0.000000    0.000000 Ang=   0.00 deg.
 Guess basis will be translated and rotated to current coordinates.
 Leave Link  401 at Wed May 16 14:17:32 2012, MaxMem=  458752000 cpu:       3.0
 (Enter /usr/local/gaussian09A2/g09/linda-exe/l502.exel)
 Closed shell SCF:
 Requested convergence on RMS density matrix=1.00D-10 within 128 cycles.
 Requested convergence on MAX density matrix=1.00D-08.
 Requested convergence on             energy=1.00D-08.
 No special actions if energy rises.
 Using DIIS extrapolation, IDIIS=  1040.
 Two-electron integral symmetry not used.
       454492 words used for storage of precomputed grid.
 Keep R1 ints in memory in canonical form, NReq=139242854.
 IEnd=      573491 IEndB=      573491 NGot=   458752000 MDV=   322572908
 LenX=   322572908 LenY=   322539706
 Symmetry not used in FoFDir.
 MinBra= 0 MaxBra= 2 Meth= 1.
 IRaf=       0 NMat=   1 IRICut=       1 DoRegI=T DoRafI=F ISym2E= 0 JSym2E=0.

 Cycle   1  Pass 1  IDiag  1:
 Defaulting to unpruned grid for atomic number  75.
 Defaulting to unpruned grid for atomic number  75.
 Defaulting to unpruned grid for atomic number  75.
 Defaulting to unpruned grid for atomic number  75.
 Defaulting to unpruned grid for atomic number  75.
 Defaulting to unpruned grid for atomic number  75.
 Defaulting to unpruned grid for atomic number  75.
 Defaulting to unpruned grid for atomic number  75.
 E= -860.110860354062    
 DIIS: error= 7.40D-11 at cycle   1 NSaved=   1.
 NSaved= 1 IEnMin= 1 EnMin= -860.110860354062     IErMin= 1 ErrMin= 7.40D-11
 ErrMax= 7.40D-11 EMaxC= 1.00D-01 BMatC= 3.13D-18 BMatP= 3.13D-18
 IDIUse=1 WtCom= 1.00D+00 WtEn= 0.00D+00
 Coeff-Com:  0.100D+01
 Coeff:      0.100D+01
 Gap=     0.145 Goal=   None    Shift=    0.000
 RMSDP=3.36D-11 MaxDP=1.41D-09              OVMax= 1.82D-09

 SCF Done:  E(RB3LYP) =  -860.110860354     A.U. after    1 cycles
             Convg  =    0.3355D-10             -V/T =  2.0684
 KE= 8.050497232454D+02 PE=-3.340230422756D+03 EE= 1.006478780317D+03
 Leave Link  502 at Wed May 16 14:17:39 2012, MaxMem=  458752000 cpu:      52.8
 (Enter /usr/local/gaussian09A2/g09/l801.exe)
 Range of M.O.s used for correlation:     1   170
 NBasis=   170 NAE=    44 NBE=    44 NFC=     0 NFV=     0
 NROrb=    170 NOA=    44 NOB=    44 NVA=   126 NVB=   126
 Leave Link  801 at Wed May 16 14:17:39 2012, MaxMem=  458752000 cpu:       0.2
 (Enter /usr/local/gaussian09A2/g09/linda-exe/l1002.exel)
 Minotr:  Closed shell wavefunction.
          Direct CPHF calculation.
          Differentiating once with respect to magnetic field using GIAOs.
          Electric field/nuclear overlap derivatives assumed to be zero.
          Requested convergence is 1.0D-08 RMS, and 1.0D-07 maximum.
          Secondary convergence is 1.0D-12 RMS, and 1.0D-12 maximum.
          NewPWx=T KeepS1=F KeepF1=F KeepIn=T MapXYZ=F SortEE=F KeepMc=T.
          MDV=     458751852 using IRadAn=       1.
 Defaulting to unpruned grid for atomic number  75.
 Generate precomputed XC quadrature information.
          Keep R3 ints in memory in canonical form, NReq=136481886.
 Symmetry not used in FoFDir.
 MinBra= 0 MaxBra= 2 Meth= 1.
 IRaf=       0 NMat=   1 IRICut=       1 DoRegI=T DoRafI=F ISym2E= 0 JSym2E=0.
          Solving linear equations simultaneously, MaxMat=       0.
 FoFCou: FMM=F IPFlag=           0 FMFlag=           0 FMFlg1=           0
         NFxFlg=           0 DoJE=F BraDBF=F KetDBF=T FulRan=T
         Omega=  0.000000  0.000000  1.000000  0.000000  0.000000 ICntrl=    6100 IOpCl=  0
         NMat0=    1 NMatS0=    1 NMatT0=    0 NMatD0=    1 NMtDS0=    0 NMtDT0=    0
         I1Cent=           7 NGrid=          18.
 Symmetry not used in FoFCou.
   1 Symmetry operations used in ECPInt.
 ECPInt:  NShTT=    2145 NPrTT=   11673 LenC2=    2146 LenP2D=   11673.
 LDataN:  DoStor=T MaxTD1= 8 Len=  415
 Defaulting to unpruned grid for atomic number  75.
 Defaulting to unpruned grid for atomic number  75.
 Defaulting to unpruned grid for atomic number  75.
 Defaulting to unpruned grid for atomic number  75.
 Defaulting to unpruned grid for atomic number  75.
 Defaulting to unpruned grid for atomic number  75.
 Defaulting to unpruned grid for atomic number  75.
 Defaulting to unpruned grid for atomic number  75.
          There are     3 degrees of freedom in the 1st order CPHF.  IDoFFX=0.
      3 vectors produced by pass  0 Test12= 1.85D-13 3.33D-08 XBig12= 2.94D+01 1.57D+00.
 AX will form     3 AO Fock derivatives at one time.
      3 vectors produced by pass  1 Test12= 1.85D-13 3.33D-08 XBig12= 1.43D-01 1.31D-01.
      3 vectors produced by pass  2 Test12= 1.85D-13 3.33D-08 XBig12= 1.10D-03 1.46D-02.
      3 vectors produced by pass  3 Test12= 1.85D-13 3.33D-08 XBig12= 7.48D-06 8.64D-04.
      3 vectors produced by pass  4 Test12= 1.85D-13 3.33D-08 XBig12= 4.26D-08 5.25D-05.
      3 vectors produced by pass  5 Test12= 1.85D-13 3.33D-08 XBig12= 2.99D-10 5.22D-06.
      3 vectors produced by pass  6 Test12= 1.85D-13 3.33D-08 XBig12= 1.38D-12 4.05D-07.
 Inverted reduced A of dimension    21 with in-core refinement.
 Calculating GIAO nuclear magnetic shielding tensors.
 SCF GIAO Magnetic shielding tensor (ppm):
  1  S    Isotropic =   328.4176   Anisotropy =   321.6277
   XX=   443.7250   YX=  -153.5559   ZX=   -12.4207
   XY=  -127.1394   YY=   259.8899   ZY=   126.6489
   XZ=   -51.6903   YZ=    73.2283   ZZ=   281.6380
   Eigenvalues:   141.7013   300.7154   542.8361
  2  C    Isotropic =   139.5677   Anisotropy =    40.3560
   XX=   154.3233   YX=   -10.8491   ZX=    13.6810
   XY=    -0.3044   YY=   108.9452   ZY=     7.5909
   XZ=     9.3205   YZ=     8.6988   ZZ=   155.4347
   Eigenvalues:   106.3559   145.8756   166.4717
  3  C    Isotropic =   103.7996   Anisotropy =    54.4260
   XX=   101.0122   YX=   -29.4783   ZX=     6.5587
   XY=   -21.5092   YY=    94.5582   ZY=    21.4460
   XZ=    -7.1569   YZ=    31.1047   ZZ=   115.8284
   Eigenvalues:    63.9331   107.3820   140.0835
  4  O    Isotropic =    50.1297   Anisotropy =   161.4392
   XX=    86.6764   YX=    67.2057   ZX=    91.4197
   XY=    45.9195   YY=   -28.4236   ZY=   -87.2859
   XZ=    44.9275   YZ=   -32.6831   ZZ=    92.1362
   Eigenvalues:   -89.6659    82.2991   157.7558
  5  C    Isotropic =   168.1993   Anisotropy =    32.4385
   XX=   157.7319   YX=    -1.6859   ZX=     6.0152
   XY=    -0.3946   YY=   159.5528   ZY=    -8.5701
   XZ=     6.2090   YZ=    -3.8013   ZZ=   187.3132
   Eigenvalues:   156.5002   158.2727   189.8250
  6  H    Isotropic =    30.6490   Anisotropy =     8.6745
   XX=    34.5076   YX=    -0.1167   ZX=     2.7001
   XY=    -0.6534   YY=    26.9359   ZY=    -0.3936
   XZ=     3.9843   YZ=    -0.4324   ZZ=    30.5036
   Eigenvalues:    26.8887    28.6263    36.4320
  7  H    Isotropic =    31.0074   Anisotropy =     6.4137
   XX=    29.0971   YX=     1.3841   ZX=     0.3947
   XY=     1.8939   YY=    32.5390   ZY=    -2.5488
   XZ=    -0.3186   YZ=    -3.4719   ZZ=    31.3861
   Eigenvalues:    27.8172    29.9218    35.2832
  8  H    Isotropic =    31.0594   Anisotropy =     8.1997
   XX=    28.5885   YX=    -1.6255   ZX=    -0.2072
   XY=    -1.5566   YY=    30.0639   ZY=     2.9151
   XZ=    -0.6169   YZ=     3.8924   ZZ=    34.5260
   Eigenvalues:    27.1297    29.5228    36.5259
  9  H    Isotropic =    29.3817   Anisotropy =     7.6619
   XX=    28.3022   YX=    -4.0327   ZX=    -0.5504
   XY=    -3.4500   YY=    29.5834   ZY=     2.2129
   XZ=    -1.3627   YZ=     3.2009   ZZ=    30.2595
   Eigenvalues:    24.9146    28.7408    34.4896
 10  H    Isotropic =    29.0793   Anisotropy =     6.7997
   XX=    28.8066   YX=     3.3132   ZX=    -0.7788
   XY=     2.5773   YY=    26.2322   ZY=    -2.0372
   XZ=    -1.1699   YZ=    -1.9753   ZZ=    32.1993
   Eigenvalues:    24.1305    29.4950    33.6125
 11  H    Isotropic =    27.4537   Anisotropy =     4.3276
   XX=    26.4045   YX=     1.1900   ZX=     0.5202
   XY=     2.4605   YY=    29.2633   ZY=     0.2396
   XZ=     0.3658   YZ=     1.1628   ZZ=    26.6933
   Eigenvalues:    25.5075    26.5148    30.3387
 12  Re   Isotropic =  -225.8400   Anisotropy =    44.4102
   XX=  -222.4091   YX=    11.2329   ZX=    -5.3938
   XY=    22.0290   YY=  -207.9855   ZY=    -2.6047
   XZ=     5.4961   YZ=   -12.9967   ZZ=  -247.1256
   Eigenvalues:  -249.1189  -232.1680  -196.2332
 13  O    Isotropic =  -511.1743   Anisotropy =   412.6069
   XX=  -865.1008   YX=   -53.2867   ZX=   351.3381
   XY=    17.4911   YY=  -270.4341   ZY=    58.1613
   XZ=   284.1516   YZ=   -26.4500   ZZ=  -397.9882
   Eigenvalues: -1026.5999  -270.8200  -236.1031
 14  O    Isotropic =  -543.8365   Anisotropy =   471.1394
   XX=  -366.1179   YX=   235.9714   ZX=    31.4018
   XY=    99.7744   YY=  -977.8831   ZY=  -155.9867
   XZ=   145.8772   YZ=   -80.3675   ZZ=  -287.5084
   Eigenvalues: -1045.6372  -356.1287  -229.7435
 15  C    Isotropic =   158.1059   Anisotropy =    41.2492
   XX=   146.9913   YX=    -0.4131   ZX=     9.7938
   XY=     0.4545   YY=   143.6252   ZY=     3.5088
   XZ=    -1.2293   YZ=    11.9786   ZZ=   183.7013
   Eigenvalues:   142.0518   146.6606   185.6054
 16  H    Isotropic =    30.1934   Anisotropy =     4.5035
   XX=    30.9829   YX=     1.7640   ZX=    -0.4987
   XY=     2.2487   YY=    29.0797   ZY=     2.4732
   XZ=     0.9312   YZ=     2.0753   ZZ=    30.5176
   Eigenvalues:    26.8299    30.5546    33.1957
 17  H    Isotropic =    30.1786   Anisotropy =     7.8011
   XX=    29.6068   YX=    -2.2027   ZX=    -1.4045
   XY=    -2.4501   YY=    28.4857   ZY=     2.0341
   XZ=    -3.0927   YZ=     3.1593   ZZ=    32.4434
   Eigenvalues:    26.5360    28.6204    35.3794
 18  H    Isotropic =    30.2143   Anisotropy =     4.1154
   XX=    27.3861   YX=    -0.3993   ZX=    -1.7032
   XY=    -0.2842   YY=    31.3277   ZY=    -0.6964
   XZ=    -0.8462   YZ=    -1.6384   ZZ=    31.9291
   Eigenvalues:    26.9588    30.7262    32.9580
 End of Minotr Frequency-dependent properties file   721 does not exist.
 End of Minotr Frequency-dependent properties file   722 does not exist.
 Leave Link 1002 at Wed May 16 14:17:53 2012, MaxMem=  458752000 cpu:     105.4
 (Enter /usr/local/gaussian09A2/g09/linda-exe/l1101.exel)
 Using compressed storage, NAtomX=    18.
 Will process  19 centers per pass.
   1 Symmetry operations used in ECPInt.
 ECPInt:  NShTT=    2145 NPrTT=   11673 LenC2=    2098 LenP2D=    7970.
 LDataN:  DoStor=T MaxTD1= 8 Len=  415
 Leave Link 1101 at Wed May 16 14:17:57 2012, MaxMem=  458752000 cpu:      21.6
 (Enter /usr/local/gaussian09A2/g09/l1102.exe)
 Symmetrizing basis deriv contribution to polar:
 IMax=3 JMax=2 DiffMx= 0.00D+00
 Leave Link 1102 at Wed May 16 14:17:57 2012, MaxMem=  458752000 cpu:       0.3
 (Enter /usr/local/gaussian09A2/g09/linda-exe/l1110.exel)
 Forming Gx(P) for the SCF density, NAtomX=    18.
 Integral derivatives from FoFDir/FoFCou, PRISM(SPDF).
 Do as many integral derivatives as possible in FoFDir.
 G2DrvN: MDV=     458751752.
 G2DrvN: will do    19 centers at a time, making    1 passes doing MaxLOS=2.
 Calling FoFCou, ICntrl=  3107 FMM=F I1Cent=   0 AccDes= 0.00D+00.
 FoFCou: FMM=F IPFlag=           0 FMFlag=      100000 FMFlg1=           0
         NFxFlg=           0 DoJE=F BraDBF=F KetDBF=F FulRan=T
         Omega=  0.000000  0.000000  1.000000  0.000000  0.000000 ICntrl=    3107 IOpCl=  0
         NMat0=    1 NMatS0=    1 NMatT0=    0 NMatD0=    1 NMtDS0=    0 NMtDT0=    0
         I1Cent=           0 NGrid=           0.
 Symmetry not used in FoFCou.
 Defaulting to unpruned grid for atomic number  75.
 Defaulting to unpruned grid for atomic number  75.
 Defaulting to unpruned grid for atomic number  75.
 Defaulting to unpruned grid for atomic number  75.
 Defaulting to unpruned grid for atomic number  75.
 Defaulting to unpruned grid for atomic number  75.
 Defaulting to unpruned grid for atomic number  75.
 Defaulting to unpruned grid for atomic number  75.
 FoFDir/FoFCou used for L=0 through L=2.
 End of G2Drv Frequency-dependent properties file   721 does not exist.
 End of G2Drv Frequency-dependent properties file   722 does not exist.
 Leave Link 1110 at Wed May 16 14:18:33 2012, MaxMem=  458752000 cpu:     288.0
 (Enter /usr/local/gaussian09A2/g09/linda-exe/l1002.exel)
 Minotr:  Closed shell wavefunction.
          IDoAtm=111111111111111111
          Direct CPHF calculation.
          Differentiating once with respect to electric field.
                with respect to dipole field.
          Differentiating once with respect to nuclear coordinates.
          Requested convergence is 1.0D-08 RMS, and 1.0D-07 maximum.
          Secondary convergence is 1.0D-12 RMS, and 1.0D-12 maximum.
          NewPWx=T KeepS1=F KeepF1=F KeepIn=T MapXYZ=F SortEE=F KeepMc=T.
          MDV=     458751816 using IRadAn=       1.
 Defaulting to unpruned grid for atomic number  75.
 Generate precomputed XC quadrature information.
          Keep R1 ints in memory in canonical form, NReq=136482303.
 Symmetry not used in FoFDir.
 MinBra= 0 MaxBra= 2 Meth= 1.
 IRaf=       0 NMat=   1 IRICut=       1 DoRegI=T DoRafI=F ISym2E= 0 JSym2E=0.
          Solving linear equations simultaneously, MaxMat=       0.
 Defaulting to unpruned grid for atomic number  75.
 Defaulting to unpruned grid for atomic number  75.
 Defaulting to unpruned grid for atomic number  75.
 Defaulting to unpruned grid for atomic number  75.
 Defaulting to unpruned grid for atomic number  75.
 Defaulting to unpruned grid for atomic number  75.
 Defaulting to unpruned grid for atomic number  75.
 Defaulting to unpruned grid for atomic number  75.
          There are    57 degrees of freedom in the 1st order CPHF.  IDoFFX=5.
     54 vectors produced by pass  0 Test12= 9.73D-15 1.75D-09 XBig12= 1.71D+02 5.38D+00.
 AX will form    54 AO Fock derivatives at one time.
     54 vectors produced by pass  1 Test12= 9.73D-15 1.75D-09 XBig12= 1.71D+02 3.76D+00.
     54 vectors produced by pass  2 Test12= 9.73D-15 1.75D-09 XBig12= 2.60D+00 2.26D-01.
     54 vectors produced by pass  3 Test12= 9.73D-15 1.75D-09 XBig12= 1.93D-02 2.19D-02.
     54 vectors produced by pass  4 Test12= 9.73D-15 1.75D-09 XBig12= 6.04D-05 1.08D-03.
     52 vectors produced by pass  5 Test12= 9.73D-15 1.75D-09 XBig12= 8.75D-08 4.67D-05.
     14 vectors produced by pass  6 Test12= 9.73D-15 1.75D-09 XBig12= 1.12D-10 1.45D-06.
      3 vectors produced by pass  7 Test12= 9.73D-15 1.75D-09 XBig12= 1.39D-13 5.05D-08.
      1 vectors produced by pass  8 Test12= 9.73D-15 1.75D-09 XBig12= 1.46D-16 1.81D-09.
 Inverted reduced A of dimension   340 with in-core refinement.
 FullF1:  Do perturbations    1 to     3.
 Isotropic polarizability for W=    0.000000      112.65 Bohr**3.
 Dipole-magnetic dipole polarizability for W=    0.000000:
                 1             2             3 
      1   0.766066D+00  0.365478D+02  0.102086D+03
      2  -0.247501D+02  0.145937D+02  0.155436D+03
      3  -0.668084D+02 -0.105647D+03 -0.149427D+02
 DQ contribution to OR G for W=    0.000000:
                 1             2             3 
      1   0.437110D+01  0.126867D+03  0.318461D+03
      2  -0.100652D+03  0.280203D+02  0.494976D+03
      3  -0.233069D+03 -0.374625D+03 -0.323914D+02
 Optical Rotation G' tensor for W=    0.000000:
                 1             2             3 
      1   0.918290D+00  0.327350D+00  0.185461D+01
      2   0.327350D+00 -0.832374D-01  0.259641D+01
      3   0.185461D+01  0.259641D+01 -0.417958D+00
 OR G Eigenvalues:    -3.1964     0.2487     3.3648  Iso=    -0.1390
 Eigenvectors:
   (1)  -0.290575  -0.594648   0.749640
   (2)   0.779319  -0.601644  -0.175172
   (3)   0.555183   0.533308   0.638243
 w=    0.000000 a.u., Optical Rotation Beta=     -0.1390 au.
 Molar Mass =    323.3803 grams/mole, [Alpha]D (static) =      -16.62 deg.
 AAT (total):
 -0.1530  0.0559  0.3058
 -0.2265  0.0504  0.5037
 -0.1366 -0.2654 -0.0286
  0.0047 -0.1594  0.1019
  0.1019  0.0913  0.2013
  0.0395  0.0087 -0.0161
  0.3629  0.7748 -0.0363
 -0.7215 -0.6700  0.5316
 -0.5259 -0.8751  0.2167
 -0.2200 -1.1164 -0.1374
  1.1967  0.6887 -0.7977
  1.3624  2.2200 -0.5602
 -0.1469 -0.2280  0.0752
  0.1983  0.1897 -0.0189
  0.0063  0.0476  0.0117
 -0.0087 -0.1809 -0.0204
 -0.1421 -0.0255  0.1794
 -0.0718 -0.2630  0.0359
  0.1617  0.0617  0.0552
  0.1101 -0.1935 -0.1327
 -0.1875  0.0180  0.0174
 -0.1254  0.0982 -0.0453
  0.0324  0.1785 -0.0732
  0.2602  0.2243 -0.0724
 -0.0964 -0.0145 -0.1010
  0.0830  0.0741 -0.0008
  0.1360 -0.0083  0.0289
  0.0430  0.0154  0.1516
  0.0681 -0.0911 -0.0462
 -0.2478  0.0439  0.0056
  0.0845 -0.1524 -0.0391
  0.2160  0.0721 -0.0784
  0.0527  0.0495 -0.0349
 -0.0924 -0.4459  1.5515
  0.2146 -0.1921  2.1546
 -2.8843 -4.2256  0.4958
  0.4749  0.1498 -2.0096
 -0.2989  0.0910 -1.0633
  2.6986  0.2252 -0.4566
 -0.4767  0.9803 -0.1964
 -0.7993 -0.2277 -1.8848
 -0.5145  2.7263  0.4816
  0.0787  0.2675  0.1474
 -0.2683  0.0146  0.3091
  0.0911  0.0438 -0.0749
 -0.0529  0.1365  0.0426
  0.0393  0.0688 -0.1525
 -0.0247  0.1909  0.0547
  0.1046  0.0002  0.0690
  0.1232 -0.1187  0.1508
 -0.1309 -0.1310  0.0033
  0.0354 -0.0867 -0.1523
 -0.0795 -0.0197 -0.0102
  0.2025  0.0697 -0.0754
 End of Minotr Frequency-dependent properties file   721 does not exist.
 End of Minotr Frequency-dependent properties file   722 does not exist.
 Leave Link 1002 at Wed May 16 14:19:22 2012, MaxMem=  458752000 cpu:     378.4
 (Enter /usr/local/gaussian09A2/g09/l601.exe)
 Copying SCF densities to generalized density rwf, IOpCl= 0 IROHF=0.

 **********************************************************************

            Population analysis using the SCF density.

 **********************************************************************

 Alpha  occ. eigenvalues --  -88.86674 -19.20120 -19.19828 -19.19464 -10.26893
 Alpha  occ. eigenvalues --  -10.22784 -10.19731 -10.19382  -7.94421  -5.90776
 Alpha  occ. eigenvalues --   -5.90374  -5.89952  -3.34709  -1.91397  -1.90033
 Alpha  occ. eigenvalues --   -1.89035  -1.03484  -0.96747  -0.94907  -0.81355
 Alpha  occ. eigenvalues --   -0.75727  -0.70780  -0.65765  -0.61159  -0.53133
 Alpha  occ. eigenvalues --   -0.49610  -0.47153  -0.45938  -0.45616  -0.45391
 Alpha  occ. eigenvalues --   -0.43796  -0.42961  -0.41513  -0.40888  -0.40630
 Alpha  occ. eigenvalues --   -0.38976  -0.38713  -0.36893  -0.33887  -0.33230
 Alpha  occ. eigenvalues --   -0.32363  -0.31296  -0.30028  -0.25946
 Alpha virt. eigenvalues --   -0.11442  -0.10992  -0.06543  -0.03553  -0.01056
 Alpha virt. eigenvalues --    0.00701   0.01393   0.02210   0.02567   0.05054
 Alpha virt. eigenvalues --    0.06873   0.08245   0.08688   0.09528   0.09687
 Alpha virt. eigenvalues --    0.10223   0.13424   0.15117   0.15370   0.16254
 Alpha virt. eigenvalues --    0.17127   0.17463   0.18630   0.18949   0.19955
 Alpha virt. eigenvalues --    0.20953   0.21831   0.22454   0.23409   0.24799
 Alpha virt. eigenvalues --    0.29219   0.31782   0.37355   0.37728   0.40362
 Alpha virt. eigenvalues --    0.43893   0.45530   0.45919   0.49578   0.52294
 Alpha virt. eigenvalues --    0.54264   0.55504   0.57192   0.58852   0.59488
 Alpha virt. eigenvalues --    0.62296   0.63240   0.65176   0.67245   0.67778
 Alpha virt. eigenvalues --    0.70620   0.77692   0.80776   0.83980   0.84222
 Alpha virt. eigenvalues --    0.86234   0.87124   0.87877   0.88472   0.89159
 Alpha virt. eigenvalues --    0.89846   0.90944   0.93981   0.95870   0.97232
 Alpha virt. eigenvalues --    0.98956   1.01201   1.02777   1.04427   1.05929
 Alpha virt. eigenvalues --    1.07315   1.08675   1.12192   1.15644   1.16784
 Alpha virt. eigenvalues --    1.18051   1.19118   1.22234   1.27383   1.34629
 Alpha virt. eigenvalues --    1.37752   1.39160   1.41847   1.50868   1.56125
 Alpha virt. eigenvalues --    1.61695   1.63924   1.67522   1.68911   1.72228
 Alpha virt. eigenvalues --    1.74170   1.74697   1.74971   1.76871   1.77348
 Alpha virt. eigenvalues --    1.79287   1.82562   1.85161   1.88660   1.90001
 Alpha virt. eigenvalues --    1.92657   1.96503   1.97476   2.00846   2.01717
 Alpha virt. eigenvalues --    2.02987   2.10445   2.12259   2.13667   2.17138
 Alpha virt. eigenvalues --    2.22791   2.25161   2.25681   2.27993   2.31557
 Alpha virt. eigenvalues --    2.46439   2.51849   2.55474   2.58716   2.59598
 Alpha virt. eigenvalues --    2.69603   2.83911  50.13093  50.32666  50.39133
 Alpha virt. eigenvalues --  178.04871
     Molecular Orbital Coefficients:
                           1         2         3         4         5
                           O         O         O         O         O
     Eigenvalues --   -88.86674 -19.20120 -19.19828 -19.19464 -10.26893
   1 1   S  1S          0.99659   0.00000   0.00000   0.00001   0.00000
   2        2S          0.01239  -0.00005  -0.00005   0.00008   0.00004
   3        2PX         0.00006  -0.00004  -0.00006   0.00005   0.00001
   4        2PY        -0.00003   0.00005   0.00001  -0.00004  -0.00001
   5        2PZ         0.00006   0.00001   0.00001   0.00001   0.00005
   6        3S         -0.00570  -0.00028  -0.00028   0.00043   0.00007
   7        3PX        -0.00024   0.00024   0.00034  -0.00026  -0.00017
   8        3PY         0.00013  -0.00031  -0.00009   0.00022   0.00005
   9        3PZ        -0.00011  -0.00007  -0.00007  -0.00004  -0.00039
  10        4S          0.00672   0.00381   0.00374  -0.00265  -0.00309
  11        4PX         0.00151   0.00081   0.00072  -0.00064  -0.00127
  12        4PY        -0.00100  -0.00032  -0.00045   0.00003   0.00085
  13        4PZ        -0.00002  -0.00039  -0.00033  -0.00046   0.00042
  14        5D 0       -0.00004  -0.00003  -0.00002   0.00007  -0.00007
  15        5D+1       -0.00002  -0.00001  -0.00004  -0.00009   0.00005
  16        5D-1        0.00002   0.00003   0.00004  -0.00001   0.00004
  17        5D+2        0.00004  -0.00005   0.00011  -0.00009   0.00005
  18        5D-2       -0.00010  -0.00007   0.00002   0.00009   0.00006
  19 2   C  1S         -0.00003  -0.00003  -0.00001   0.00000   0.00188
  20        2S         -0.00014  -0.00031  -0.00014  -0.00028  -0.00124
  21        2PX         0.00001  -0.00005  -0.00009  -0.00032  -0.00033
  22        2PY         0.00000   0.00009   0.00006   0.00009   0.00005
  23        2PZ        -0.00002   0.00007   0.00007  -0.00005  -0.00004
  24        3S          0.00006   0.00065  -0.00008  -0.00123   0.01027
  25        3PX         0.00012   0.00049   0.00027  -0.00104   0.00474
  26        3PY         0.00015  -0.00060  -0.00053   0.00051  -0.00100
  27        3PZ         0.00007  -0.00023  -0.00023  -0.00007   0.00154
  28        4D 0        0.00021   0.00000   0.00001   0.00009   0.00028
  29        4D+1        0.00002  -0.00001   0.00000   0.00000  -0.00036
  30        4D-1        0.00003   0.00001   0.00001   0.00014  -0.00002
  31        4D+2        0.00003   0.00002   0.00000  -0.00009  -0.00074
  32        4D-2        0.00000  -0.00001  -0.00001   0.00003   0.00001
  33 3   C  1S          0.00001  -0.00001  -0.00002  -0.00015   0.99547
  34        2S          0.00009  -0.00013  -0.00022  -0.00122   0.03876
  35        2PX        -0.00002   0.00000   0.00005   0.00030   0.00018
  36        2PY         0.00005   0.00007   0.00004  -0.00041  -0.00105
  37        2PZ        -0.00006   0.00011   0.00010  -0.00046  -0.00070
  38        3S         -0.00013  -0.00022   0.00021   0.00923  -0.03636
  39        3PX         0.00022   0.00006  -0.00029   0.00084   0.00315
  40        3PY        -0.00044  -0.00002   0.00016  -0.00286   0.00128
  41        3PZ         0.00052  -0.00065  -0.00102  -0.00169  -0.00054
  42        4D 0       -0.00001   0.00001   0.00001   0.00010   0.00003
  43        4D+1       -0.00002  -0.00003  -0.00003   0.00006  -0.00019
  44        4D-1        0.00000   0.00002   0.00002   0.00010   0.00024
  45        4D+2       -0.00001   0.00000   0.00003   0.00000  -0.00017
  46        4D-2       -0.00001   0.00000   0.00001   0.00001  -0.00019
  47 4   O  1S          0.00000   0.00003   0.00036   0.99517   0.00005
  48        2S          0.00000   0.00002   0.00005   0.03012   0.00007
  49        2PX        -0.00002  -0.00001   0.00007  -0.00078   0.00009
  50        2PY         0.00001  -0.00008   0.00003   0.00081  -0.00007
  51        2PZ        -0.00001  -0.00010  -0.00012  -0.00031  -0.00012
  52        3S          0.00020   0.00047   0.00036  -0.02092   0.00246
  53        3PX         0.00005  -0.00009  -0.00034   0.00223  -0.00020
  54        3PY        -0.00002   0.00039  -0.00008  -0.00229  -0.00048
  55        3PZ        -0.00006   0.00053   0.00061   0.00066   0.00036
  56        4D 0       -0.00001  -0.00006  -0.00007  -0.00030   0.00005
  57        4D+1       -0.00002   0.00003   0.00011   0.00018   0.00056
  58        4D-1       -0.00001  -0.00007  -0.00004  -0.00046  -0.00108
  59        4D+2       -0.00004   0.00014  -0.00004   0.00013   0.00048
  60        4D-2        0.00004  -0.00001  -0.00006   0.00029   0.00091
  61 5   C  1S          0.00001   0.00000  -0.00001   0.00003   0.00101
  62        2S          0.00004   0.00002  -0.00008  -0.00008  -0.00104
  63        2PX         0.00002  -0.00001  -0.00001  -0.00003  -0.00002
  64        2PY         0.00001   0.00002   0.00000   0.00001  -0.00005
  65        2PZ         0.00002  -0.00003  -0.00001   0.00035   0.00041
  66        3S         -0.00045   0.00035   0.00081  -0.00182   0.00814
  67        3PX        -0.00006  -0.00004  -0.00001   0.00019  -0.00096
  68        3PY        -0.00001   0.00006   0.00010   0.00027   0.00021
  69        3PZ         0.00016  -0.00022  -0.00039   0.00087  -0.00417
  70        4D 0       -0.00001   0.00000   0.00002  -0.00017  -0.00081
  71        4D+1        0.00000   0.00001   0.00000  -0.00002  -0.00012
  72        4D-1       -0.00001  -0.00002  -0.00002  -0.00003   0.00045
  73        4D+2       -0.00001  -0.00001   0.00000  -0.00004   0.00000
  74        4D-2        0.00000  -0.00001   0.00000  -0.00011   0.00007
  75 6   H  1S          0.00004   0.00000  -0.00004   0.00003  -0.00044
  76        2S          0.00001   0.00001   0.00001  -0.00011   0.00026
  77 7   H  1S         -0.00001  -0.00003   0.00000   0.00010  -0.00054
  78        2S          0.00004   0.00015  -0.00008   0.00001   0.00002
  79 8   H  1S          0.00000   0.00001  -0.00002  -0.00007  -0.00040
  80        2S          0.00002   0.00001   0.00000   0.00034   0.00061
  81 9   H  1S          0.00000   0.00004   0.00006  -0.00011  -0.00050
  82        2S         -0.00004   0.00038   0.00042   0.00008   0.00051
  83 10  H  1S          0.00005  -0.00015  -0.00006   0.00019  -0.00052
  84        2S         -0.00004   0.00031   0.00019  -0.00062  -0.00043
  85 11  H  1S          0.00006  -0.00005  -0.00007  -0.00038  -0.00037
  86        2S          0.00035   0.00044   0.00021  -0.00118   0.00548
  87 12  Re 1S          0.00002   0.00005   0.00004   0.00004   0.00005
  88        2S          0.00011   0.00020   0.00015   0.00041   0.00026
  89        3S         -0.00008  -0.00171  -0.00157  -0.00180  -0.00029
  90        4S          0.00023   0.00848   0.00800   0.00357  -0.00107
  91        5S         -0.00297  -0.00257  -0.00214   0.00301   0.00334
  92        6S          0.00017  -0.00010  -0.00005  -0.00027  -0.00073
  93        7PX         0.00000   0.00000  -0.00009  -0.00001   0.00000
  94        7PY         0.00000   0.00010  -0.00004  -0.00005   0.00002
  95        7PZ         0.00000  -0.00001   0.00002  -0.00011   0.00000
  96        8PX         0.00000   0.00001  -0.00068  -0.00006  -0.00001
  97        8PY         0.00002   0.00075  -0.00031  -0.00026   0.00013
  98        8PZ         0.00003  -0.00006   0.00019  -0.00068   0.00003
  99        9PX         0.00003  -0.00008   0.00239   0.00027   0.00009
 100        9PY        -0.00007  -0.00272   0.00107   0.00045  -0.00038
 101        9PZ        -0.00006   0.00008  -0.00084   0.00152  -0.00023
 102       10PX         0.00214   0.00213   0.00739  -0.00153  -0.00231
 103       10PY        -0.00141  -0.00798   0.00047   0.00209   0.00220
 104       10PZ        -0.00028  -0.00153  -0.00381   0.00348   0.00235
 105       11PX         0.00013   0.00013  -0.00104   0.00004   0.00013
 106       11PY        -0.00013   0.00119  -0.00054  -0.00009  -0.00055
 107       11PZ        -0.00005  -0.00007   0.00046  -0.00025  -0.00061
 108       12D 0        0.00004  -0.00033  -0.00024   0.00034  -0.00008
 109       12D+1        0.00003  -0.00016  -0.00043   0.00000   0.00006
 110       12D-1       -0.00001   0.00009  -0.00001   0.00017  -0.00026
 111       12D+2        0.00002  -0.00044   0.00025  -0.00012   0.00002
 112       12D-2       -0.00001  -0.00005   0.00020   0.00014   0.00013
 113       13D 0       -0.00004  -0.00164  -0.00066   0.00318   0.00012
 114       13D+1        0.00003   0.00033  -0.00178   0.00067  -0.00015
 115       13D-1       -0.00009  -0.00014  -0.00169   0.00131   0.00187
 116       13D+2       -0.00028  -0.00353   0.00102   0.00056  -0.00009
 117       13D-2        0.00044   0.00226   0.00353  -0.00066  -0.00148
 118       14D 0        0.00024  -0.00002   0.00030   0.00012   0.00023
 119       14D+1        0.00004   0.00039   0.00012  -0.00040  -0.00016
 120       14D-1       -0.00014  -0.00022  -0.00049   0.00046  -0.00013
 121       14D+2       -0.00022  -0.00028  -0.00012  -0.00004   0.00043
 122       14D-2        0.00056   0.00072   0.00067  -0.00039  -0.00030
 123 13  O  1S          0.00000   0.99514  -0.00569  -0.00004  -0.00001
 124        2S          0.00001   0.02956   0.00015  -0.00004  -0.00013
 125        2PX         0.00004   0.00004   0.00001   0.00001   0.00003
 126        2PY        -0.00001   0.00127   0.00015   0.00010   0.00004
 127        2PZ         0.00000   0.00005   0.00000   0.00005  -0.00004
 128        3S         -0.00018  -0.01904  -0.00085   0.00081   0.00055
 129        3PX        -0.00013   0.00009   0.00020  -0.00008  -0.00028
 130        3PY         0.00003  -0.00420  -0.00091  -0.00030  -0.00011
 131        3PZ        -0.00001  -0.00022  -0.00016  -0.00007   0.00038
 132        4D 0       -0.00001   0.00029   0.00006  -0.00012   0.00002
 133        4D+1        0.00000  -0.00001   0.00011  -0.00001   0.00001
 134        4D-1        0.00000  -0.00007  -0.00003  -0.00004   0.00008
 135        4D+2        0.00000   0.00055   0.00001   0.00009   0.00003
 136        4D-2       -0.00001  -0.00001   0.00002  -0.00003  -0.00007
 137 14  O  1S          0.00000   0.00571   0.99514  -0.00036  -0.00001
 138        2S          0.00000   0.00050   0.02954   0.00002  -0.00020
 139        2PX         0.00003  -0.00014  -0.00108  -0.00005  -0.00001
 140        2PY        -0.00002  -0.00007  -0.00044  -0.00003  -0.00002
 141        2PZ         0.00000   0.00006   0.00048   0.00007   0.00005
 142        3S         -0.00011  -0.00113  -0.01897   0.00042   0.00121
 143        3PX        -0.00010   0.00090   0.00363   0.00022  -0.00025
 144        3PY         0.00006   0.00010   0.00125   0.00023   0.00014
 145        3PZ        -0.00002  -0.00045  -0.00157  -0.00027  -0.00013
 146        4D 0       -0.00001   0.00008   0.00014  -0.00014  -0.00001
 147        4D+1       -0.00001   0.00010   0.00036   0.00003   0.00004
 148        4D-1        0.00000  -0.00005   0.00014  -0.00003  -0.00002
 149        4D+2        0.00001   0.00001  -0.00035  -0.00003   0.00006
 150        4D-2        0.00000   0.00002  -0.00031  -0.00009  -0.00005
 151 15  C  1S          0.00001   0.00002   0.00002   0.00003  -0.00009
 152        2S          0.00006   0.00009   0.00001   0.00023  -0.00025
 153        2PX        -0.00003  -0.00006  -0.00004  -0.00004  -0.00003
 154        2PY         0.00003  -0.00004   0.00004  -0.00001  -0.00002
 155        2PZ         0.00003  -0.00003  -0.00006  -0.00008  -0.00007
 156        3S          0.00014   0.00014   0.00023  -0.00181   0.00072
 157        3PX         0.00036  -0.00005  -0.00078  -0.00054   0.00030
 158        3PY        -0.00026   0.00099  -0.00032   0.00045   0.00030
 159        3PZ        -0.00006  -0.00007   0.00009  -0.00058   0.00028
 160        4D 0        0.00000   0.00000   0.00004   0.00000  -0.00001
 161        4D+1        0.00003  -0.00009  -0.00015  -0.00008   0.00002
 162        4D-1       -0.00002   0.00013   0.00002   0.00005   0.00003
 163        4D+2        0.00001   0.00000  -0.00008  -0.00008   0.00000
 164        4D-2        0.00001   0.00005  -0.00001   0.00011   0.00004
 165 16  H  1S          0.00002   0.00013  -0.00013   0.00001  -0.00002
 166        2S          0.00035   0.00002   0.00016   0.00022  -0.00002
 167 17  H  1S         -0.00001   0.00010   0.00009   0.00017   0.00001
 168        2S         -0.00024  -0.00016  -0.00049   0.00001  -0.00014
 169 18  H  1S          0.00003  -0.00013   0.00012  -0.00005  -0.00009
 170        2S          0.00035   0.00012  -0.00016   0.00014  -0.00025
                           6         7         8         9        10
                           O         O         O         O         O
     Eigenvalues --   -10.22784 -10.19731 -10.19382  -7.94421  -5.90776
   1 1   S  1S         -0.00001  -0.00001   0.00000  -0.28066   0.00090
   2        2S         -0.00004  -0.00008  -0.00002   1.02746  -0.00354
   3        2PX         0.00000  -0.00002   0.00000   0.00353  -0.34085
   4        2PY        -0.00001   0.00002   0.00001  -0.00159   0.30571
   5        2PZ        -0.00003   0.00003   0.00000   0.00556   0.87805
   6        3S         -0.00038  -0.00054  -0.00015   0.04491  -0.00067
   7        3PX         0.00000   0.00005   0.00001   0.00159  -0.01139
   8        3PY         0.00012  -0.00004  -0.00005  -0.00086   0.01039
   9        3PZ         0.00087  -0.00005  -0.00002   0.00092   0.02988
  10        4S          0.00707   0.00189   0.00086  -0.03878   0.00153
  11        4PX         0.00084   0.00093  -0.00001  -0.00822   0.00427
  12        4PY         0.00004  -0.00061   0.00026   0.00537  -0.00387
  13        4PZ         0.00448  -0.00074   0.00099  -0.00024  -0.01088
  14        5D 0        0.00016   0.00012   0.00008   0.00039   0.00142
  15        5D+1        0.00007  -0.00011   0.00003   0.00000   0.00029
  16        5D-1       -0.00001   0.00016   0.00003   0.00002   0.00006
  17        5D+2        0.00003   0.00003   0.00001  -0.00012  -0.00014
  18        5D-2       -0.00002  -0.00012   0.00001   0.00026   0.00031
  19 2   C  1S          0.99544   0.00010   0.00030   0.00009   0.00030
  20        2S          0.03846  -0.00016  -0.00065   0.00046   0.00198
  21        2PX         0.00029   0.00002  -0.00015  -0.00005   0.00019
  22        2PY        -0.00010   0.00004   0.00003   0.00000  -0.00006
  23        2PZ        -0.00044   0.00009  -0.00031   0.00029   0.00084
  24        3S         -0.03532   0.00042   0.00147   0.00042  -0.00846
  25        3PX        -0.00194  -0.00005   0.00067  -0.00050  -0.00339
  26        3PY         0.00076  -0.00030  -0.00016  -0.00080   0.00110
  27        3PZ         0.00138  -0.00031   0.00149  -0.00065   0.00090
  28        4D 0       -0.00036   0.00001   0.00003  -0.00094  -0.00132
  29        4D+1        0.00000   0.00001  -0.00001  -0.00009  -0.00021
  30        4D-1       -0.00003   0.00000  -0.00012  -0.00012  -0.00010
  31        4D+2       -0.00006  -0.00001   0.00004  -0.00013  -0.00027
  32        4D-2       -0.00001  -0.00001   0.00002   0.00002   0.00005
  33 3   C  1S         -0.00193   0.00006  -0.00099  -0.00004  -0.00015
  34        2S         -0.00107  -0.00012  -0.00066  -0.00033  -0.00099
  35        2PX         0.00043  -0.00007  -0.00012   0.00010  -0.00007
  36        2PY         0.00005   0.00012   0.00021  -0.00027   0.00002
  37        2PZ         0.00004   0.00013  -0.00049   0.00024  -0.00012
  38        3S          0.00775  -0.00052   0.00523   0.00027   0.00716
  39        3PX        -0.00361  -0.00007   0.00119  -0.00106  -0.00307
  40        3PY         0.00003   0.00016  -0.00054   0.00227  -0.00090
  41        3PZ        -0.00097  -0.00054   0.00360  -0.00247  -0.00124
  42        4D 0        0.00037   0.00000  -0.00084   0.00004   0.00003
  43        4D+1       -0.00039  -0.00001  -0.00026   0.00012   0.00015
  44        4D-1       -0.00005  -0.00001   0.00038  -0.00001   0.00003
  45        4D+2       -0.00082   0.00002   0.00001   0.00003   0.00009
  46        4D-2        0.00008   0.00003   0.00018   0.00005  -0.00002
[...]
 4412,0.1516158,0.0681324,-0.0911358,-0.0461737,-0.2477589,0.043921,0.0
 056371,0.0844971,-0.1523795,-0.0390905,0.2159904,0.0720623,-0.0783515,
 0.0527218,0.0495019,-0.0348742,-0.0924272,-0.4459001,1.5515341,0.21462
 51,-0.1920768,2.1545752,-2.884344,-4.2256061,0.4958183,0.4748629,0.149
 754,-2.0096208,-0.2988858,0.0909597,-1.0633412,2.6985852,0.2251913,-0.
 4565516,-0.4766902,0.9802975,-0.196352,-0.7993046,-0.2277004,-1.884835
 5,-0.5145459,2.7263349,0.4816067,0.0787393,0.2675341,0.1474096,-0.2682
 865,0.0146181,0.3091485,0.0910931,0.0438368,-0.0749432,-0.0528824,0.13
 65023,0.0426048,0.0393267,0.06881,-0.1524619,-0.0247375,0.1908632,0.05
 47466,0.1046461,0.0001652,0.0690039,0.123198,-0.1186932,0.1508492,-0.1
 308796,-0.1309527,0.0033355,0.0353778,-0.0867393,-0.1523485,-0.0794965
 ,-0.0196856,-0.0102352,0.2024987,0.0696954,-0.0754071\GPTens=0.7660659
 ,-24.7500963,-66.8084031,36.5477918,14.5936985,-105.6466908,102.086202
 2,155.436498,-14.9426698\OptRot=0.9182902,0.3273501,1.8546091,0.327350
 1,-0.0832374,2.5964052,1.8546091,2.5964052,-0.4179581\DQPolar=315.9494
 544,-146.5264843,-169.42297,-138.5198203,28.9497168,1.1101327,94.54917
 17,-237.9983949,143.4492232,228.0983922,33.501494,39.4113003,-71.70263
 59,-87.4552439,159.1578798,29.1303908,325.5527625,-175.0122396\PG=C01 
 [X(C4H9O3Re1S1)]\NImag=0\\0.12083443,-0.04936050,0.06320035,0.01548891
 ,0.01086524,0.22715491,-0.04289057,0.00167667,-0.01070379,0.49203861,0
 .00330967,-0.03386780,0.00818939,-0.00777799,0.59210206,-0.00169373,-0
 .00222140,-0.11830068,-0.05644611,-0.01304584,0.35324834,-0.00558313,0
 .00166691,-0.01119178,-0.18305739,-0.01231548,-0.02942067,0.48447902,0
 .00329696,-0.00299696,0.00151650,-0.00886381,-0.07694497,0.00539286,0.
 07878666,0.53438020,-0.02057689,-0.00486138,-0.02862422,-0.03184482,0.
 00386946,-0.06974431,0.02087993,-0.05745635,0.47844509,-0.01053487,0.0
 0883240,-0.00653050,-0.02733119,0.03672711,0.01687806,-0.08499350,0.03
 665932,0.01244711,0.15361175,0.00512424,0.00176971,0.00325191,0.018015
 35,-0.01466212,-0.00806016,0.03400549,-0.12692409,-0.02931388,-0.08939
 768,0.21276292,-0.01841634,0.00822583,-0.00504343,0.00876312,-0.010184
 73,-0.01051766,0.01476719,-0.03656591,-0.07290111,-0.02285068,0.128659
 51,0.33640262,-0.00379875,0.00029597,-0.00491515,-0.00514897,0.0055797
 6,-0.03106889,-0.08325615,0.00030057,-0.02368942,0.00219886,0.00268546
 ,0.02191411,0.58703387,0.00098529,0.00063937,0.00008875,-0.00040423,0.
 00057934,0.00290296,0.00211829,-0.08964385,0.04279528,-0.00115636,0.00
 079144,-0.03562834,0.00416118,0.58317826,-0.00006640,0.00039186,0.0011
 5158,-0.00853981,0.00383533,-0.01044479,-0.01861268,0.03588625,-0.1758
 5005,0.00397984,-0.00899500,-0.03554183,-0.01450483,0.02372884,0.48626
 197,0.00018397,-0.00004005,0.00011248,0.00091368,0.00042517,-0.0007465
 3,-0.00394961,0.00004346,-0.00015111,0.00104386,-0.00013694,0.00070917
 ,-0.31062811,0.01471715,-0.04850019,0.33421430,0.00042135,0.00027799,0
 .00020425,-0.00071047,0.00032857,0.00157012,0.00913413,-0.00190538,0.0
 0107472,-0.00068035,0.00006021,-0.00036770,0.01436906,-0.05098465,0.00
 370371,-0.01688792,0.04951206,-0.00107158,-0.00010737,-0.00127715,0.00
 122823,0.00096921,-0.00525439,-0.03493092,0.00113126,-0.00804430,0.000
 22691,0.00099523,0.00381284,-0.04595907,0.00306682,-0.05671013,0.05312
 048,-0.00499678,0.06159903,-0.00020423,-0.00015232,-0.00000084,0.00099
 401,0.00165476,-0.00023527,0.00134894,0.00553755,-0.00034893,-0.000054
 52,-0.00001894,0.00004978,-0.09898848,-0.10061050,0.02315077,-0.011714
 17,-0.02923377,0.00707187,0.10182844,0.00020660,0.00019689,-0.00021329
 ,-0.00069926,0.00019499,-0.00036116,-0.00295745,-0.00897966,0.00137965
 ,0.00034508,0.00188120,0.00009783,-0.09990766,-0.25673912,0.04932765,0
 .00140800,0.00341151,-0.00140224,0.11015715,0.27660389,-0.00021501,-0.
 00044038,0.00018505,0.00193999,0.00019153,0.00088716,0.01473698,0.0322
 2433,-0.00930332,-0.00068887,-0.00050548,0.00344474,0.02279549,0.04676
 146,-0.06016989,-0.00180676,-0.00603698,0.00081104,-0.02424091,-0.0556
 0856,0.06498485,0.00007644,-0.00003162,0.00032626,-0.00000846,0.000112
 89,-0.00003202,0.00037315,-0.00483455,-0.00331113,0.00083812,0.0002051
 5,-0.00133794,-0.09028529,0.07431009,0.06245213,-0.01088444,0.02312252
 ,0.02019653,0.00598646,-0.00989232,-0.01025314,0.09350719,-0.00021954,
 -0.00005757,-0.00029737,0.00023274,0.00011190,0.00011962,-0.00416880,0
 .00499634,0.00480451,0.00046174,0.00116372,0.00176135,0.07419680,-0.18
 144299,-0.11039798,-0.00000194,-0.00106930,0.00026370,0.01249814,-0.01
 818555,-0.01712434,-0.08251831,0.19342393,0.00014533,0.00022873,0.0004
 1028,0.00022357,-0.00020760,0.00093578,0.01277931,-0.02397626,-0.01396
 642,-0.00114780,0.00024496,-0.00932365,0.06151470,-0.10878242,-0.14180
 414,-0.00194995,0.00565801,0.00441158,-0.00434275,0.00534231,0.0050550
 0,-0.06772651,0.12094250,0.15315607,0.00227035,-0.00221467,-0.00168234
 ,-0.09571627,0.09496361,0.02940110,-0.00701748,0.02577779,0.00981913,-
 0.00780115,0.00403926,0.00320792,0.00007530,-0.00033813,0.00027940,-0.
 00004888,-0.00028370,-0.00013721,-0.00004448,-0.00005669,0.00001244,-0
 .00000328,-0.00001234,-0.00055326,0.10045876,-0.00090977,0.00198951,-0
 .00071521,0.09837936,-0.25820400,-0.06059938,-0.00219027,-0.00103192,-
 0.00022677,-0.00003662,0.00155029,0.00010949,0.00029338,-0.00039215,-0
 .00028367,0.00006205,0.00016041,0.00024542,0.00002906,0.00016240,-0.00
 011912,0.00001384,0.00033341,0.00028824,-0.10590461,0.27324825,0.01144
 156,-0.01960528,-0.01228455,0.03176136,-0.06544339,-0.06038177,-0.0017
 2943,0.00867754,0.00292403,-0.00278355,0.00058519,0.00104204,0.0002578
 5,0.00020096,-0.00011421,0.00002494,-0.00021172,-0.00004301,-0.0001200
 6,-0.00006579,0.00007313,-0.00027478,0.00000862,-0.00016546,-0.0327240
 4,0.06641056,0.06808542,0.00366374,0.00195555,-0.00212543,-0.12148074,
 -0.10135499,0.05488324,-0.01852649,-0.02783943,0.01069284,0.00228112,0
 .00113544,-0.00000424,0.00149710,-0.00087386,0.00169422,0.00036972,0.0
 0037714,0.00016325,0.00006443,0.00092110,-0.00086360,-0.00001510,0.000
 02801,-0.00019314,0.00848500,0.01071215,-0.00618597,0.13004758,0.00323
 202,0.00500984,-0.00350397,-0.10301935,-0.20742095,0.07961419,0.000830
 66,-0.00041501,-0.00123455,-0.00071321,0.00154495,0.00107820,0.0007481
 9,0.00064438,0.00011781,0.00017939,0.00019445,-0.00015818,-0.00016964,
 0.00032045,-0.00044142,-0.00016028,-0.00012930,-0.00006152,-0.01507101
 ,-0.01965754,0.01114498,0.11394752,0.21795469,0.01134237,0.01366964,-0
 .02189993,0.05978799,0.08581801,-0.08270832,-0.00571045,-0.00841889,0.
 00317458,-0.00006211,0.00050272,0.00162795,-0.00051260,-0.00098615,0.0
 0098254,0.00007009,-0.00005803,-0.00009578,-0.00007095,0.00021025,0.00
 019834,0.00005086,-0.00016958,-0.00001422,-0.00501885,-0.00630554,0.00
 506654,-0.05647763,-0.08565177,0.09561418,0.00116148,0.00049174,0.0008
 9714,-0.01919138,-0.02782507,0.00806448,-0.10587539,-0.10323682,0.0246
 7339,0.00754796,0.02004088,0.00394044,0.00343620,0.00495737,-0.0027294
 1,0.00071151,0.00038888,0.00057202,0.00073325,0.00064227,-0.00137823,0
 .00008561,-0.00025133,0.00030551,0.00110748,0.00017116,0.00034974,-0.0
 0555444,0.00020850,-0.00263576,0.11581055,0.00003562,0.00074091,-0.000
 41717,0.00063842,0.00252784,0.00088749,-0.10313353,-0.22848982,0.05433
 064,0.00027970,-0.03246930,-0.01431142,-0.00387736,-0.00483868,0.00335
 399,0.00028993,0.00007943,-0.00017911,0.00035180,0.00110589,0.00096894
 ,-0.00009517,0.00031046,0.00062202,-0.00046126,0.00094849,-0.00007362,
 0.00090090,0.00144535,0.00041979,0.10405553,0.25931060,-0.00013651,0.0
 0014485,0.00139672,-0.00550765,-0.00652499,0.00190934,0.02664045,0.056
 96225,-0.06521216,-0.00400352,-0.02785615,-0.00392195,0.01436724,0.028
 47785,-0.00822718,-0.00037599,-0.00049274,0.00139553,-0.00119269,0.001
 44205,-0.00602849,0.00028823,-0.00076848,0.00103875,0.00057140,0.00022
 578,0.00027957,-0.00136170,-0.00005562,0.00016751,-0.02948874,-0.05010
 331,0.07395492,-0.06704303,0.02741744,0.01030307,-0.00172809,0.0038566
 0,0.00869635,0.01093126,-0.00968151,0.00273427,-0.05294458,0.01401841,
 -0.01089741,-0.00285738,0.00258638,0.00250812,-0.00049660,0.00012985,-
 0.00074613,0.00001159,-0.00013302,0.00009882,0.00036934,-0.00034628,0.
 00107490,-0.00233517,-0.00107800,-0.00057246,-0.00100520,0.00054780,-0
 .00037786,0.00063645,0.00006153,-0.00109931,0.62155062,0.02601511,-0.0
 4036077,-0.00455190,-0.00017681,-0.00934381,-0.00690426,0.00035564,-0.
 00083852,-0.01779298,0.00917142,-0.06271379,-0.03393809,0.00104486,-0.
 00178141,-0.00160255,0.00004338,-0.00005379,0.00022482,-0.00023854,-0.
 00011885,0.00025795,-0.00018267,0.00062366,-0.00009919,-0.00085903,0.0
 0119925,-0.00246328,0.00044139,0.00113350,0.00302458,-0.00026698,-0.00
 032776,-0.00183403,0.11150106,0.81362563,-0.00794077,0.00946636,-0.021
 00290,0.00803688,-0.00661610,-0.00021300,0.01352925,-0.01748758,-0.047
 74132,-0.00685031,-0.04831613,-0.18789605,0.00021273,-0.00358028,0.000
 33762,-0.00044820,-0.00011509,-0.00049665,0.00035665,-0.00014103,-0.00
 021427,-0.00043852,0.00108529,0.00005542,-0.00262216,0.00120466,-0.003
 89497,-0.00005131,-0.00112210,-0.00224786,-0.00268523,0.00579366,0.003
 71426,-0.15196152,0.00881676,0.47405187,0.00708250,0.00273685,-0.00244
 121,0.00072822,-0.00082554,0.00058458,0.00078812,0.00138121,-0.0001528
 0,0.00062536,-0.00050903,-0.00145034,-0.00012957,-0.00027951,0.0000200
 8,0.00001155,0.00005236,-0.00005756,0.00002379,-0.00000002,-0.00003623
 ,0.00003738,0.00002841,-0.00006710,0.00016257,0.00023764,-0.00031885,0
 .00005833,-0.00039715,-0.00038180,-0.00022055,0.00017799,0.00034125,-0
 .05326115,-0.02825787,0.01227549,0.03274071,0.01264545,-0.00480507,-0.
 00347550,0.00068844,0.00101653,0.00049345,-0.00139404,0.00072691,0.001
 31533,-0.00166709,0.00269760,-0.01297945,0.00028475,-0.00093674,0.0005
 2248,-0.00012381,0.00003745,-0.00013442,0.00016687,0.00017160,-0.00008
 167,-0.00002338,0.00006815,-0.00045007,0.00025440,0.00008802,-0.000172
 89,-0.00006633,-0.00040544,-0.00120357,0.00075802,-0.00053298,-0.00037
 338,-0.01220429,-0.53900050,-0.02525945,0.03197820,0.54355953,0.001434
 77,-0.00189518,0.00017419,0.00040299,0.00080152,0.00071403,-0.00306379
 ,-0.00090433,0.00340573,0.00051217,-0.01355975,-0.00450683,-0.00008093
 ,0.00083127,-0.00002052,0.00004061,-0.00000355,-0.00000269,-0.00008732
 ,-0.00000675,0.00002224,0.00002785,-0.00010234,0.00022021,-0.00006975,
 -0.00006959,0.00018558,-0.00025714,0.00022510,0.00024209,0.00041561,-0
 .00062720,-0.00056400,0.01126338,-0.02096186,-0.02963987,-0.00206606,0
 .02010892,0.03193834,-0.00661958,0.00652277,0.00176689,0.00040926,0.00
 112186,0.00036408,-0.00015291,-0.00024025,-0.00143388,0.00561421,0.000
 41159,0.00893586,-0.00003141,0.00051194,-0.00026348,0.00015627,-0.0001
 0148,0.00018241,0.00003430,-0.00003557,-0.00011193,-0.00001901,-0.0000
 1383,0.00021309,0.00000331,0.00003564,0.00044831,0.00027502,-0.0001236
 3,0.00014649,-0.00056846,0.00088155,0.00101987,-0.38898366,-0.13322142
 ,0.16818503,0.01159069,-0.03147264,-0.00744799,0.38777489,-0.00401548,
 0.00953064,0.00039325,-0.00015308,0.00277232,-0.00014485,-0.00170706,-
 0.00025686,0.00024187,0.00634528,0.00446545,0.00100907,0.00038491,0.00
 044006,-0.00012934,0.00008396,-0.00008900,0.00013879,0.00000365,0.0000
 0522,-0.00006712,-0.00009683,-0.00007808,0.00007029,0.00019103,-0.0003
 0028,0.00097617,0.00009213,-0.00019271,-0.00005533,-0.00019872,0.00034
 303,0.00077693,-0.15055042,-0.11946892,0.06852336,-0.01473532,-0.00254
 700,0.00621136,0.16117191,0.10449429,0.00553099,-0.00670538,0.00020443
 ,-0.00024970,-0.00016364,-0.00044854,0.00077009,0.00161005,0.00287901,
 0.01105252,0.00521435,-0.01230749,-0.00026020,0.00030321,0.00006891,-0
 .00003821,0.00003491,-0.00006983,-0.00000182,-0.00000389,0.00002832,0.
 00002392,-0.00010131,0.00005097,-0.00025571,-0.00008558,-0.00019771,0.
 00007772,0.00007326,-0.00009123,-0.00017811,-0.00061321,0.00003092,0.1
 6854001,0.06148672,-0.10401992,-0.00596389,0.01572546,0.00400396,-0.16
 713487,-0.07312984,0.11136294,0.00151156,-0.00039729,0.00676136,0.0007
 2198,0.00177901,0.00170281,-0.00541330,0.00214086,-0.00068004,0.010269
 69,-0.00935107,-0.00623723,0.00066273,-0.00051009,-0.00093249,0.000123
 21,-0.00011201,0.00006322,-0.00000685,-0.00001468,-0.00001333,-0.00006
 153,0.00009442,-0.00016697,0.00027076,0.00014817,0.00010644,-0.0001332
 3,0.00000288,-0.00008925,0.00013398,0.00002364,0.00000495,-0.05428785,
 0.01123426,-0.01943510,-0.00298509,-0.00177866,0.00058105,-0.00843517,
 0.00624725,-0.01080924,0.53592474,-0.00011716,0.00067019,-0.00795950,0
 .00054697,-0.00128439,-0.00014140,0.00116760,-0.00158505,0.00104029,-0
 .00556441,0.00826999,0.00332480,-0.00057772,0.00047527,0.00058285,-0.0
 0006644,0.00005564,-0.00005034,0.00001924,-0.00000977,0.00001676,0.000
 07360,-0.00006854,0.00016736,-0.00007787,-0.00008549,-0.00014196,-0.00
 025292,0.00010941,-0.00010623,0.00007378,-0.00017871,-0.00007906,0.011
 70481,-0.04274819,0.00805187,0.00921438,0.00061615,0.00902659,-0.00595
 301,-0.00163496,-0.00538233,0.00630309,0.56560846,0.00396624,-0.005828
 25,-0.01549512,0.00040091,0.00005627,0.00035960,0.00022529,0.00032746,
 -0.00104125,-0.00041107,-0.00052593,-0.00104510,-0.00029917,0.00000037
 ,-0.00000758,-0.00006631,0.00000551,-0.00012077,0.00002411,-0.00003628
 ,0.00002094,0.00000733,-0.00000865,0.00008380,-0.00035093,-0.00019584,
 -0.00042124,-0.00003932,-0.00006527,-0.00031356,-0.00015379,0.00016133
 ,0.00016929,-0.02019591,0.01125700,-0.04588783,-0.00250194,0.00310231,
 -0.00904076,-0.00410484,-0.00312470,-0.00511804,-0.08934929,0.00446096
 ,0.31517677,-0.00024367,0.00030327,0.00225283,0.00045530,0.00062154,-0
 .00035333,-0.00018587,0.00040350,0.00032215,0.00038428,-0.00065695,-0.
 00089370,0.00013246,-0.00008002,-0.00002305,0.00000603,-0.00000554,0.0
 0004444,-0.00000403,0.00000424,0.00000128,-0.00000533,0.00000716,-0.00
 004552,0.00007595,0.00002569,0.00021342,-0.00000969,-0.00003636,-0.000
 08601,0.00001516,-0.00001410,-0.00002223,-0.00855801,-0.00253029,-0.00
 067097,0.00115619,0.00052980,0.00102808,0.00050245,0.00037786,-0.00143
 449,-0.28792092,-0.10947782,0.00993694,0.30427320,-0.00012429,-0.00053
 744,-0.00125799,0.00033577,0.00024083,-0.00019934,0.00010160,-0.000138
 72,0.00029709,-0.00047613,0.00041838,0.00015893,0.00005812,0.00005868,
 0.00001924,0.00001136,-0.00000830,0.00002921,-0.00000452,-0.00000172,0
 .00000103,-0.00000596,-0.00000222,0.00001083,-0.00001032,0.00000597,0.
 00011444,-0.00002238,-0.00001344,-0.00001374,0.00001762,0.00000316,-0.
 00000423,0.00358844,-0.00002327,0.00115229,-0.00008323,-0.00055405,-0.
 00057081,0.00026573,0.00078993,0.00053328,-0.10690144,-0.09779006,0.00
 142497,0.11620201,0.09950311,-0.00036747,-0.00207474,-0.00245362,0.001
 07036,0.00006111,0.00021944,-0.00114039,0.00086910,0.00083581,0.001348
 96,-0.00172428,-0.00238604,0.00022984,-0.00018008,-0.00013201,0.000029
 28,-0.00001331,0.00006233,-0.00000705,0.00001136,0.00001467,-0.0000044
 8,0.00000301,-0.00008401,0.00012797,0.00007082,-0.00001740,-0.00007641
 ,0.00001382,-0.00003104,0.00004170,-0.00011115,-0.00005299,-0.02011353
 ,-0.00515685,-0.00593585,0.00129650,0.00072272,0.00119388,-0.00067063,
 0.00107980,-0.00002227,0.00085044,-0.00301346,-0.03469053,-0.00899785,
 -0.00207936,0.04222822,-0.00026301,-0.00040004,0.00023922,0.00054721,0
 .00024572,-0.00059977,0.00031986,-0.00004410,0.00073105,-0.00141967,0.
 00170711,0.00063855,0.00003692,0.00003686,0.00013825,-0.00001032,0.000
 01132,0.00003887,-0.00000676,0.00000283,0.00000922,0.00000798,-0.00002
 321,-0.00001178,0.00002754,0.00000231,0.00016792,-0.00004945,-0.000006
 99,-0.00008307,0.00002750,-0.00007384,-0.00001689,0.00351125,-0.003797
 54,-0.00487439,0.00140286,0.00173233,-0.00188914,-0.00158426,-0.002815
 26,-0.00102201,-0.14290225,0.07914839,0.10180569,-0.01426167,0.0158837
 4,0.01762651,0.15494364,-0.00069147,-0.00067587,-0.00011414,0.00061058
 ,0.00103629,0.00039794,-0.00025844,-0.00000924,-0.00017641,0.00065491,
 -0.00035390,-0.00036597,-0.00000899,-0.00001462,-0.00004828,0.00000041
 ,-0.00000352,-0.00001923,0.00000368,-0.00001042,0.00000011,-0.00000299
 ,0.00000531,0.00000280,0.00005829,-0.00000560,0.00009688,-0.00008191,-
 0.00005494,-0.00035892,0.00000848,0.00000038,0.00003290,-0.00023094,0.
 00079624,-0.00083481,-0.00079218,-0.00116029,0.00110950,0.00028082,0.0
 0102419,0.00157154,0.08119049,-0.11715302,-0.08353198,-0.00784401,0.00
 767786,0.00885936,-0.09128784,0.12159736,-0.00023600,0.00056801,-0.001
 71066,-0.00035718,-0.00087485,-0.00020266,0.00174693,-0.00051795,0.000
 24830,-0.00211976,0.00173589,0.00107579,-0.00024355,0.00017797,0.00030
 493,-0.00004864,0.00004642,-0.00004120,0.00000998,0.00000932,-0.000007
 95,0.00001868,-0.00002306,0.00003896,-0.00007148,-0.00001089,-0.000043
 59,-0.00001194,0.00002520,0.00001843,-0.00002116,-0.00003960,-0.000011
 40,0.00700865,-0.00871151,-0.01855111,0.00193019,0.00262244,0.00141397
 ,-0.00105995,-0.00203116,0.00224982,0.11510264,-0.09212024,-0.14551711
 ,-0.00133504,0.00101900,0.00113209,-0.11362909,0.09310959,0.15257073,0
 .00039637,0.00069691,0.00144290,-0.00025523,-0.00029864,0.00002163,-0.
 00022914,0.00041260,-0.00011086,0.00066426,-0.00131777,-0.00083825,0.0
 0005068,-0.00013186,-0.00005047,-0.00000196,0.00000862,-0.00000575,-0.
 00000171,0.00000942,0.00001379,0.00000078,0.00000816,-0.00005162,0.000
 02969,0.00000883,-0.00006241,0.00003231,0.00000067,0.00010855,0.000003
 10,-0.00004135,-0.00002817,-0.00350979,0.00972402,-0.00461754,0.000188
 09,-0.00030801,-0.00074439,0.00003407,-0.00062582,0.00135301,-0.047472
 48,0.01383549,0.00110607,0.00418818,-0.02883613,0.00875626,-0.00032737
 ,0.01839112,-0.00668329,0.04621018,0.00016589,-0.00072393,-0.00200324,
 0.00068069,0.00081736,0.00029916,-0.00004191,0.00005660,-0.00008653,0.
 00021488,-0.00025267,-0.00008340,-0.00003127,-0.00003259,-0.00001321,-
 0.00000716,-0.00000379,-0.00001679,0.00000634,-0.00000893,0.00000296,0
 .00000600,-0.00000334,-0.00000100,0.00000527,-0.00000902,-0.00003741,-
 0.00001951,-0.00006769,-0.00031725,-0.00003533,0.00002172,0.00002938,-
 0.00118784,-0.00059871,-0.00062168,0.00007280,0.00096012,0.00038710,-0
 .00004199,0.00070268,-0.00036759,0.00990117,-0.31326691,0.07252073,0.0
 0217001,-0.00962871,0.00266212,-0.00032179,-0.01269622,0.00501543,-0.0
 1153626,0.33473402,0.00137052,0.00017882,-0.00258489,0.00003365,-0.000
 73068,-0.00005757,-0.00027529,0.00072967,0.00051594,0.00100261,-0.0023
 3298,-0.00201482,0.00024184,-0.00017846,-0.00008522,0.00002486,-0.0000
 0176,0.00006355,-0.00001456,0.00001856,-0.00000157,-0.00001328,0.00000
 451,-0.00009893,0.00006637,0.00005662,-0.00009241,0.00013659,0.0000018
 2,0.00030979,0.00001039,-0.00006205,-0.00003863,-0.00626344,0.01894866
 ,-0.01041758,-0.00101030,-0.00048271,0.00026045,0.00096553,-0.00073855
 ,0.00139574,0.00254004,0.08232305,-0.05711151,0.00006306,-0.00063485,0
 .00011934,0.00073086,-0.01973088,0.00703265,0.00039056,-0.07736879,0.0
 6280566\\-0.00000080,0.00000083,0.00000117,0.00000163,-0.00000122,-0.0
 0000116,-0.00000354,0.00000063,-0.00000014,0.00000111,-0.00000032,0.00
 000001,-0.00000031,-0.00000176,0.00000202,-0.00000064,-0.00000131,0.00
 000018,-0.00000015,-0.00000180,-0.00000068,-0.00000073,-0.00000231,0.0
 0000041,-0.00000118,-0.00000158,0.00000134,-0.00000033,-0.00000157,-0.
 00000040,-0.00000040,-0.00000100,0.00000099,0.00000135,-0.00000028,-0.
 00000200,0.00000207,0.00000195,-0.00000128,-0.00000088,0.00000192,0.00
 000084,0.,0.00000103,-0.00000043,0.00000109,0.00000187,-0.00000118,0.0
 0000101,0.00000277,-0.00000047,0.00000070,0.00000216,0.00000078\\\@


 ... A MOLECULAR SYSTEM ... (PASSES) ... FROM ONE STATE OF EQUILIBRIUM 
 TO ANOTHER ... BY MEANS OF ALL POSSIBLE INTERMEDIATE PATHS, 
 BUT THE PATH MOST ECONOMICAL OF ENERGY WILL BE THE MORE OFTEN TRAVELED.

                      -- HENRY EYRING, 1945
 Job cpu time:  0 days  0 hours  0 minutes 27.9 seconds.
 File lengths (MBytes):  RWF=     85 Int=      0 D2E=      0 Chk=      4 Scr=      1
 Normal termination of Gaussian 09 at Wed May 16 14:20:13 2012.
