title                                                                   
Freq      RB3LYP                                                      Gen                 
Number of atoms                            I               18
Info1-9                                    I   N=           9
          90          89           0           0           0         101
           6          18        -502
Charge                                     I                0
Multiplicity                               I                1
Number of electrons                        I               88
Number of alpha electrons                  I               44
Number of beta electrons                   I               44
Number of basis functions                  I              170
Number of independent functions            I              170
Number of point charges in /Mol/           I                0
Number of translation vectors              I                0
Atomic numbers                             I   N=          18
          16           6           6           8           6           1
           1           1           1           1           1          75
           8           8           6           1           1           1
Nuclear charges                            R   N=          18
  1.60000000E+01  6.00000000E+00  6.00000000E+00  8.00000000E+00  6.00000000E+00
  1.00000000E+00  1.00000000E+00  1.00000000E+00  1.00000000E+00  1.00000000E+00
  1.00000000E+00  1.50000000E+01  8.00000000E+00  8.00000000E+00  6.00000000E+00
  1.00000000E+00  1.00000000E+00  1.00000000E+00
Current cartesian coordinates              R   N=          54
 -1.97017391E-01 -1.14005607E-01 -4.32927961E-02 -3.94942632E-02  1.28027340E-01
  3.42488917E+00  2.72766861E+00 -7.62807275E-03  4.18634112E+00  3.88495733E+00
 -1.92055963E+00  2.64905365E+00  3.17186318E+00 -6.87992569E-01  6.94997200E+00
  5.19768639E+00 -8.12822762E-01  7.34292546E+00  2.29939986E+00 -2.50932734E+00
  7.40038393E+00  2.35585440E+00  7.64906299E-01  8.17878442E+00 -9.02219545E-01
  1.92030925E+00  3.98796320E+00 -1.11439346E+00 -1.42869341E+00  4.26235897E+00
  3.65850414E+00  1.79184468E+00  3.73161634E+00  3.52042068E+00 -2.63616142E+00
 -8.72511108E-01  3.29846125E+00 -5.86959071E+00 -1.00866433E+00  6.23432118E+00
 -1.39479756E+00 -2.15817287E+00  1.62299488E+00 -2.17478084E+00 -4.50228827E+00
 -2.54347067E-01 -3.01951267E+00 -4.47701244E+00  2.86840723E+00 -3.21620179E+00
 -5.78489220E+00  1.53941703E+00 -1.92871986E-01 -5.05783419E+00
Force Field                                I                0
Int Atom Types                             I   N=          18
           0           0           0           0           0           0
           0           0           0           0           0           0
           0           0           0           0           0           0
MM charges                                 R   N=          18
  0.00000000E+00  0.00000000E+00  0.00000000E+00  0.00000000E+00  0.00000000E+00
  0.00000000E+00  0.00000000E+00  0.00000000E+00  0.00000000E+00  0.00000000E+00
  0.00000000E+00  0.00000000E+00  0.00000000E+00  0.00000000E+00  0.00000000E+00
  0.00000000E+00  0.00000000E+00  0.00000000E+00
Integer atomic weights                     I   N=          18
          32          12          12          16          12           1
           1           1           1           1           1         187
          16          16          12           1           1           1
Real atomic weights                        R   N=          18
  3.19720718E+01  1.20000000E+01  1.20000000E+01  1.59949146E+01  1.20000000E+01
  1.00782504E+00  1.00782504E+00  1.00782504E+00  1.00782504E+00  1.00782504E+00
  1.00782504E+00  1.86956000E+02  1.59949146E+01  1.59949146E+01  1.20000000E+01
  1.00782504E+00  1.00782504E+00  1.00782504E+00
Atom fragment info                         I   N=          18
           0           0           0           0           0           0
           0           0           0           0           0           0
           0           0           0           0           0           0
Atom residue num                           I   N=          18
           0           0           0           0           0           0
           0           0           0           0           0           0
           0           0           0           0           0           0
Nuclear spins                              I   N=          18
           0           0           0           0           0           1
           1           1           1           1           1           5
           0           0           0           1           1           1
Nuclear ZEff                               R   N=          18
 -1.36000000E+01 -3.60000000E+00 -3.60000000E+00 -5.60000000E+00 -3.60000000E+00
 -1.00000000E+00 -1.00000000E+00 -1.00000000E+00 -1.00000000E+00 -1.00000000E+00
 -1.00000000E+00 -1.09950000E+03 -5.60000000E+00 -5.60000000E+00 -3.60000000E+00
 -1.00000000E+00 -1.00000000E+00 -1.00000000E+00
Nuclear QMom                               R   N=          18
  0.00000000E+00  0.00000000E+00  0.00000000E+00  0.00000000E+00  0.00000000E+00
  0.00000000E+00  0.00000000E+00  0.00000000E+00  0.00000000E+00  0.00000000E+00
  0.00000000E+00  2.07000000E+02  0.00000000E+00  0.00000000E+00  0.00000000E+00
  0.00000000E+00  0.00000000E+00  0.00000000E+00
Nuclear GFac                               R   N=          18
  0.00000000E+00  0.00000000E+00  0.00000000E+00  0.00000000E+00  0.00000000E+00
  2.79284600E+00  2.79284600E+00  2.79284600E+00  2.79284600E+00  2.79284600E+00
  2.79284600E+00  3.21970000E+00  0.00000000E+00  0.00000000E+00  0.00000000E+00
  2.79284600E+00  2.79284600E+00  2.79284600E+00
MicOpt                                     I   N=          18
          -1          -1          -1          -1          -1          -1
          -1          -1          -1          -1          -1          -1
          -1          -1          -1          -1          -1          -1
Number of contracted shells                I               65
Number of primitive shells                 I              151
Pure/Cartesian d shells                    I                0
Pure/Cartesian f shells                    I                0
Highest angular momentum                   I                2
Largest degree of contraction              I                6
Shell types                                I   N=          65
           0          -1          -1          -1          -2           0
          -1          -1          -2           0          -1          -1
          -2           0          -1          -1          -2           0
          -1          -1          -2           0           0           0
           0           0           0           0           0           0
           0           0           0           0           0           0
           0           0           0           1           1           1
           1           1          -2          -2          -2           0
          -1          -1          -2           0          -1          -1
          -2           0          -1          -1          -2           0
           0           0           0           0           0
Number of primitives per shell             I   N=          65
           6           6           3           1           1           6
           3           1           1           6           3           1
           1           6           3           1           1           6
           3           1           1           3           1           3
           1           3           1           3           1           3
           1           3           1           3           1           1
           1           1           1           2           2           1
           1           1           4           1           1           6
           3           1           1           6           3           1
           1           6           3           1           1           3
           1           3           1           3           1
Shell to atom map                          I   N=          65
           1           1           1           1           1           2
           2           2           2           3           3           3
           3           4           4           4           4           5
           5           5           5           6           6           7
           7           8           8           9           9          10
          10          11          11          12          12          12
          12          12          12          12          12          12
          12          12          12          12          12          13
          13          13          13          14          14          14
          14          15          15          15          15          16
          16          17          17          18          18
Primitive exponents                        R   N=         151
  2.19171000E+04  3.30149000E+03  7.54146000E+02  2.12711000E+02  6.79896000E+01
  2.30515000E+01  4.23735000E+02  1.00710000E+02  3.21599000E+01  1.18079000E+01
  4.63110000E+00  1.87025000E+00  2.61584000E+00  9.22167000E-01  3.41287000E-01
  1.17167000E-01  6.50000000E-01  3.04752488E+03  4.57369518E+02  1.03948685E+02
  2.92101553E+01  9.28666296E+00  3.16392696E+00  7.86827235E+00  1.88128854E+00
  5.44249258E-01  1.68714478E-01  8.00000000E-01  3.04752488E+03  4.57369518E+02
  1.03948685E+02  2.92101553E+01  9.28666296E+00  3.16392696E+00  7.86827235E+00
  1.88128854E+00  5.44249258E-01  1.68714478E-01  8.00000000E-01  5.48467166E+03
  8.25234946E+02  1.88046958E+02  5.29645000E+01  1.68975704E+01  5.79963534E+00
  1.55396162E+01  3.59993359E+00  1.01376175E+00  2.70005823E-01  8.00000000E-01
  3.04752488E+03  4.57369518E+02  1.03948685E+02  2.92101553E+01  9.28666296E+00
  3.16392696E+00  7.86827235E+00  1.88128854E+00  5.44249258E-01  1.68714478E-01
  8.00000000E-01  1.87311370E+01  2.82539436E+00  6.40121692E-01  1.61277759E-01
  1.87311370E+01  2.82539436E+00  6.40121692E-01  1.61277759E-01  1.87311370E+01
  2.82539436E+00  6.40121692E-01  1.61277759E-01  1.87311370E+01  2.82539436E+00
  6.40121692E-01  1.61277759E-01  1.87311370E+01  2.82539436E+00  6.40121692E-01
  1.61277759E-01  1.87311370E+01  2.82539436E+00  6.40121692E-01  1.61277759E-01
  1.47818620E+01  1.23240750E+01  5.49747800E+00  1.02605200E+00  4.69009000E-01
  1.31184000E-01  4.78570000E-02  1.50000000E-02  7.40400500E+00  6.35020600E+00
  1.88859900E+00  9.83485000E-01  3.83410000E-01  7.04600000E-02  2.20280000E-02
  3.43448200E+00  2.98078100E+00  1.01739400E+00  3.95060000E-01  1.30111000E-01
  4.00000000E-02  5.48467166E+03  8.25234946E+02  1.88046958E+02  5.29645000E+01
  1.68975704E+01  5.79963534E+00  1.55396162E+01  3.59993359E+00  1.01376175E+00
  2.70005823E-01  8.00000000E-01  5.48467166E+03  8.25234946E+02  1.88046958E+02
  5.29645000E+01  1.68975704E+01  5.79963534E+00  1.55396162E+01  3.59993359E+00
  1.01376175E+00  2.70005823E-01  8.00000000E-01  3.04752488E+03  4.57369518E+02
  1.03948685E+02  2.92101553E+01  9.28666296E+00  3.16392696E+00  7.86827235E+00
  1.88128854E+00  5.44249258E-01  1.68714478E-01  8.00000000E-01  1.87311370E+01
  2.82539436E+00  6.40121692E-01  1.61277759E-01  1.87311370E+01  2.82539436E+00
  6.40121692E-01  1.61277759E-01  1.87311370E+01  2.82539436E+00  6.40121692E-01
  1.61277759E-01
Contraction coefficients                   R   N=         151
  1.86924085E-03  1.42303065E-02  6.96962317E-02  2.38487108E-01  4.83307220E-01
  3.38074154E-01 -2.37677050E-03 -3.16930067E-02 -1.13317024E-01  5.60900118E-02
  5.92255124E-01  4.55006095E-01 -2.50373114E-01  6.69567631E-02  1.05450627E+00
  1.00000000E+00  1.00000000E+00  1.83473713E-03  1.40373228E-02  6.88426223E-02
  2.32184443E-01  4.67941348E-01  3.62311985E-01 -1.19332420E-01 -1.60854152E-01
  1.14345644E+00  1.00000000E+00  1.00000000E+00  1.83473713E-03  1.40373228E-02
  6.88426223E-02  2.32184443E-01  4.67941348E-01  3.62311985E-01 -1.19332420E-01
 -1.60854152E-01  1.14345644E+00  1.00000000E+00  1.00000000E+00  1.83107443E-03
  1.39501722E-02  6.84450781E-02  2.32714336E-01  4.70192898E-01  3.58520853E-01
 -1.10777550E-01 -1.48026263E-01  1.13076702E+00  1.00000000E+00  1.00000000E+00
  1.83473713E-03  1.40373228E-02  6.88426223E-02  2.32184443E-01  4.67941348E-01
  3.62311985E-01 -1.19332420E-01 -1.60854152E-01  1.14345644E+00  1.00000000E+00
  1.00000000E+00  3.34946043E-02  2.34726953E-01  8.13757326E-01  1.00000000E+00
  3.34946043E-02  2.34726953E-01  8.13757326E-01  1.00000000E+00  3.34946043E-02
  2.34726953E-01  8.13757326E-01  1.00000000E+00  3.34946043E-02  2.34726953E-01
  8.13757326E-01  1.00000000E+00  3.34946043E-02  2.34726953E-01  8.13757326E-01
  1.00000000E+00  3.34946043E-02  2.34726953E-01  8.13757326E-01  1.00000000E+00
 -1.14103816E+00  1.93714492E+00 -1.72327443E+00  1.00000000E+00  1.00000000E+00
  1.00000000E+00  1.00000000E+00  1.00000000E+00  2.36983597E+00 -3.31055416E+00
  1.82196100E-01  8.36307699E-01  1.00000000E+00  1.00000000E+00  1.00000000E+00
 -3.62670707E-01  3.76169607E-01  4.57833209E-01  5.99570211E-01  1.00000000E+00
  1.00000000E+00  1.83107443E-03  1.39501722E-02  6.84450781E-02  2.32714336E-01
  4.70192898E-01  3.58520853E-01 -1.10777550E-01 -1.48026263E-01  1.13076702E+00
  1.00000000E+00  1.00000000E+00  1.83107443E-03  1.39501722E-02  6.84450781E-02
  2.32714336E-01  4.70192898E-01  3.58520853E-01 -1.10777550E-01 -1.48026263E-01
  1.13076702E+00  1.00000000E+00  1.00000000E+00  1.83473713E-03  1.40373228E-02
  6.88426223E-02  2.32184443E-01  4.67941348E-01  3.62311985E-01 -1.19332420E-01
 -1.60854152E-01  1.14345644E+00  1.00000000E+00  1.00000000E+00  3.34946043E-02
  2.34726953E-01  8.13757326E-01  1.00000000E+00  3.34946043E-02  2.34726953E-01
  8.13757326E-01  1.00000000E+00  3.34946043E-02  2.34726953E-01  8.13757326E-01
  1.00000000E+00
P(S=P) Contraction coefficients            R   N=         151
  0.00000000E+00  0.00000000E+00  0.00000000E+00  0.00000000E+00  0.00000000E+00
  0.00000000E+00  4.06100998E-03  3.06812999E-02  1.30451999E-01  3.27204999E-01
  4.52850998E-01  2.56041999E-01 -1.45104895E-02  3.10262776E-01  7.54482456E-01
  1.00000000E+00  0.00000000E+00  0.00000000E+00  0.00000000E+00  0.00000000E+00
  0.00000000E+00  0.00000000E+00  0.00000000E+00  6.89990666E-02  3.16423961E-01
  7.44308291E-01  1.00000000E+00  0.00000000E+00  0.00000000E+00  0.00000000E+00
  0.00000000E+00  0.00000000E+00  0.00000000E+00  0.00000000E+00  6.89990666E-02
  3.16423961E-01  7.44308291E-01  1.00000000E+00  0.00000000E+00  0.00000000E+00
  0.00000000E+00  0.00000000E+00  0.00000000E+00  0.00000000E+00  0.00000000E+00
  7.08742682E-02  3.39752839E-01  7.27158577E-01  1.00000000E+00  0.00000000E+00
  0.00000000E+00  0.00000000E+00  0.00000000E+00  0.00000000E+00  0.00000000E+00
  0.00000000E+00  6.89990666E-02  3.16423961E-01  7.44308291E-01  1.00000000E+00
  0.00000000E+00  0.00000000E+00  0.00000000E+00  0.00000000E+00  0.00000000E+00
  0.00000000E+00  0.00000000E+00  0.00000000E+00  0.00000000E+00  0.00000000E+00
  0.00000000E+00  0.00000000E+00  0.00000000E+00  0.00000000E+00  0.00000000E+00
  0.00000000E+00  0.00000000E+00  0.00000000E+00  0.00000000E+00  0.00000000E+00
  0.00000000E+00  0.00000000E+00  0.00000000E+00  0.00000000E+00  0.00000000E+00
  0.00000000E+00  0.00000000E+00  0.00000000E+00  0.00000000E+00  0.00000000E+00
  0.00000000E+00  0.00000000E+00  0.00000000E+00  0.00000000E+00  0.00000000E+00
  0.00000000E+00  0.00000000E+00  0.00000000E+00  0.00000000E+00  0.00000000E+00
  0.00000000E+00  0.00000000E+00  0.00000000E+00  0.00000000E+00  0.00000000E+00
  0.00000000E+00  0.00000000E+00  0.00000000E+00  0.00000000E+00  0.00000000E+00
  0.00000000E+00  0.00000000E+00  7.08742682E-02  3.39752839E-01  7.27158577E-01
  1.00000000E+00  0.00000000E+00  0.00000000E+00  0.00000000E+00  0.00000000E+00
  0.00000000E+00  0.00000000E+00  0.00000000E+00  7.08742682E-02  3.39752839E-01
  7.27158577E-01  1.00000000E+00  0.00000000E+00  0.00000000E+00  0.00000000E+00
  0.00000000E+00  0.00000000E+00  0.00000000E+00  0.00000000E+00  6.89990666E-02
  3.16423961E-01  7.44308291E-01  1.00000000E+00  0.00000000E+00  0.00000000E+00
  0.00000000E+00  0.00000000E+00  0.00000000E+00  0.00000000E+00  0.00000000E+00
  0.00000000E+00  0.00000000E+00  0.00000000E+00  0.00000000E+00  0.00000000E+00
  0.00000000E+00
Coordinates of each shell                  R   N=         195
 -1.97017391E-01 -1.14005607E-01 -4.32927961E-02 -1.97017391E-01 -1.14005607E-01
 -4.32927961E-02 -1.97017391E-01 -1.14005607E-01 -4.32927961E-02 -1.97017391E-01
 -1.14005607E-01 -4.32927961E-02 -1.97017391E-01 -1.14005607E-01 -4.32927961E-02
 -3.94942632E-02  1.28027340E-01  3.42488917E+00 -3.94942632E-02  1.28027340E-01
  3.42488917E+00 -3.94942632E-02  1.28027340E-01  3.42488917E+00 -3.94942632E-02
  1.28027340E-01  3.42488917E+00  2.72766861E+00 -7.62807275E-03  4.18634112E+00
  2.72766861E+00 -7.62807275E-03  4.18634112E+00  2.72766861E+00 -7.62807275E-03
  4.18634112E+00  2.72766861E+00 -7.62807275E-03  4.18634112E+00  3.88495733E+00
 -1.92055963E+00  2.64905365E+00  3.88495733E+00 -1.92055963E+00  2.64905365E+00
  3.88495733E+00 -1.92055963E+00  2.64905365E+00  3.88495733E+00 -1.92055963E+00
  2.64905365E+00  3.17186318E+00 -6.87992569E-01  6.94997200E+00  3.17186318E+00
 -6.87992569E-01  6.94997200E+00  3.17186318E+00 -6.87992569E-01  6.94997200E+00
  3.17186318E+00 -6.87992569E-01  6.94997200E+00  5.19768639E+00 -8.12822762E-01
  7.34292546E+00  5.19768639E+00 -8.12822762E-01  7.34292546E+00  2.29939986E+00
 -2.50932734E+00  7.40038393E+00  2.29939986E+00 -2.50932734E+00  7.40038393E+00
  2.35585440E+00  7.64906299E-01  8.17878442E+00  2.35585440E+00  7.64906299E-01
  8.17878442E+00 -9.02219545E-01  1.92030925E+00  3.98796320E+00 -9.02219545E-01
  1.92030925E+00  3.98796320E+00 -1.11439346E+00 -1.42869341E+00  4.26235897E+00
 -1.11439346E+00 -1.42869341E+00  4.26235897E+00  3.65850414E+00  1.79184468E+00
  3.73161634E+00  3.65850414E+00  1.79184468E+00  3.73161634E+00  3.52042068E+00
 -2.63616142E+00 -8.72511108E-01  3.52042068E+00 -2.63616142E+00 -8.72511108E-01
  3.52042068E+00 -2.63616142E+00 -8.72511108E-01  3.52042068E+00 -2.63616142E+00
 -8.72511108E-01  3.52042068E+00 -2.63616142E+00 -8.72511108E-01  3.52042068E+00
 -2.63616142E+00 -8.72511108E-01  3.52042068E+00 -2.63616142E+00 -8.72511108E-01
  3.52042068E+00 -2.63616142E+00 -8.72511108E-01  3.52042068E+00 -2.63616142E+00
 -8.72511108E-01  3.52042068E+00 -2.63616142E+00 -8.72511108E-01  3.52042068E+00
 -2.63616142E+00 -8.72511108E-01  3.52042068E+00 -2.63616142E+00 -8.72511108E-01
  3.52042068E+00 -2.63616142E+00 -8.72511108E-01  3.52042068E+00 -2.63616142E+00
 -8.72511108E-01  3.29846125E+00 -5.86959071E+00 -1.00866433E+00  3.29846125E+00
 -5.86959071E+00 -1.00866433E+00  3.29846125E+00 -5.86959071E+00 -1.00866433E+00
  3.29846125E+00 -5.86959071E+00 -1.00866433E+00  6.23432118E+00 -1.39479756E+00
 -2.15817287E+00  6.23432118E+00 -1.39479756E+00 -2.15817287E+00  6.23432118E+00
 -1.39479756E+00 -2.15817287E+00  6.23432118E+00 -1.39479756E+00 -2.15817287E+00
  1.62299488E+00 -2.17478084E+00 -4.50228827E+00  1.62299488E+00 -2.17478084E+00
 -4.50228827E+00  1.62299488E+00 -2.17478084E+00 -4.50228827E+00  1.62299488E+00
 -2.17478084E+00 -4.50228827E+00 -2.54347067E-01 -3.01951267E+00 -4.47701244E+00
 -2.54347067E-01 -3.01951267E+00 -4.47701244E+00  2.86840723E+00 -3.21620179E+00
 -5.78489220E+00  2.86840723E+00 -3.21620179E+00 -5.78489220E+00  1.53941703E+00
 -1.92871986E-01 -5.05783419E+00  1.53941703E+00 -1.92871986E-01 -5.05783419E+00
Constraint Structure                       R   N=          54
 -1.97017391E-01 -1.14005607E-01 -4.32927961E-02 -3.94942632E-02  1.28027340E-01
  3.42488917E+00  2.72766861E+00 -7.62807275E-03  4.18634112E+00  3.88495733E+00
 -1.92055963E+00  2.64905365E+00  3.17186318E+00 -6.87992569E-01  6.94997200E+00
  5.19768639E+00 -8.12822762E-01  7.34292546E+00  2.29939986E+00 -2.50932734E+00
  7.40038393E+00  2.35585440E+00  7.64906299E-01  8.17878442E+00 -9.02219545E-01
  1.92030925E+00  3.98796320E+00 -1.11439346E+00 -1.42869341E+00  4.26235897E+00
  3.65850414E+00  1.79184468E+00  3.73161634E+00  3.52042068E+00 -2.63616142E+00
 -8.72511108E-01  3.29846125E+00 -5.86959071E+00 -1.00866433E+00  6.23432118E+00
 -1.39479756E+00 -2.15817287E+00  1.62299488E+00 -2.17478084E+00 -4.50228827E+00
 -2.54347067E-01 -3.01951267E+00 -4.47701244E+00  2.86840723E+00 -3.21620179E+00
 -5.78489220E+00  1.53941703E+00 -1.92871986E-01 -5.05783419E+00
Num ILSW                                   I              100
ILSW                                       I   N=         100
           0           0           0           0           2           0
           0           0           0           0         402   249036800
           5           0           0           0           0           0
           0           0           0           0           1           0
           1           1           0           0           0           0
           0           0      100000           0          -1           0
           0           0           0           0           0           0
           0           0           0           1           0           0
           0           0           1           0           0           0
           0           0           4          40           0           0
           0           0           5           0           0           0
           0           0           0           0           0           0
           0           0           0           0           0           0
           0           0           0           0           0           0
           0           0           0           0           0           0
           0           0           0           0           0           0
           0           0           0           0
Num RLSW                                   I               40
RLSW                                       R   N=          40
  8.00000000E-01  7.20000000E-01  1.00000000E+00  8.10000000E-01  2.00000000E-01
  0.00000000E+00  0.00000000E+00  1.00000000E+00  0.00000000E+00  0.00000000E+00
  0.00000000E+00  0.00000000E+00  1.00000000E+00  0.00000000E+00  0.00000000E+00
  0.00000000E+00  0.00000000E+00  1.00000000E+00  0.00000000E+00  0.00000000E+00
  0.00000000E+00  0.00000000E+00  1.00000000E+00  0.00000000E+00  0.00000000E+00
  0.00000000E+00  0.00000000E+00  1.00000000E+00  0.00000000E+00  0.00000000E+00
  0.00000000E+00  0.00000000E+00  0.00000000E+00  0.00000000E+00  0.00000000E+00
  0.00000000E+00  0.00000000E+00  0.00000000E+00  1.00000000E+00  1.00000000E+00
ECP-MxAtEC                                 I           250000
ECP-MaxLECP                                I               10
ECP-MaxAtL                                 I          2250000
ECP-MxTECP                                 I         11250000
ECP-LenNCZ                                 I                9
ECP-KFirst                                 I   N=         180
           0           0           0           0           0           0
           0           0           0           0           0           1
           0           0           0           0           0           0
           0           0           0           0           0           0
           0           0           0           0           0           2
           0           0           0           0           0           0
           0           0           0           0           0           0
           0           0           0           0           0           4
           0           0           0           0           0           0
           0           0           0           0           0           0
           0           0           0           0           0           6
           0           0           0           0           0           0
           0           0           0           0           0           0
           0           0           0           0           0           8
           0           0           0           0           0           0
           0           0           0           0           0           0
           0           0           0           0           0           9
           0           0           0           0           0           0
           0           0           0           0           0           0
           0           0           0           0           0           0
           0           0           0           0           0           0
           0           0           0           0           0           0
           0           0           0           0           0           0
           0           0           0           0           0           0
           0           0           0           0           0           0
           0           0           0           0           0           0
           0           0           0           0           0           0
           0           0           0           0           0           0
           0           0           0           0           0           0
           0           0           0           0           0           0
ECP-KLast                                  I   N=         180
           0           0           0           0           0           0
           0           0           0           0           0           1
           0           0           0           0           0           0
           0           0           0           0           0           0
           0           0           0           0           0           3
           0           0           0           0           0           0
           0           0           0           0           0           0
           0           0           0           0           0           5
           0           0           0           0           0           0
           0           0           0           0           0           0
           0           0           0           0           0           7
           0           0           0           0           0           0
           0           0           0           0           0           0
           0           0           0           0           0           8
           0           0           0           0           0           0
           0           0           0           0           0           0
           0           0           0           0           0           9
           0           0           0           0           0           0
           0           0           0           0           0           0
           0           0           0           0           0           0
           0           0           0           0           0           0
           0           0           0           0           0           0
           0           0           0           0           0           0
           0           0           0           0           0           0
           0           0           0           0           0           0
           0           0           0           0           0           0
           0           0           0           0           0           0
           0           0           0           0           0           0
           0           0           0           0           0           0
           0           0           0           0           0           0
ECP-LMax                                   I   N=          18
           0           0           0           0           0           0
           0           0           0           0           0           5
           0           0           0           0           0           0
ECP-LPSkip                                 I   N=          18
           1           1           1           1           1           1
           1           1           1           1           1           0
           1           1           1           1           1           1
ECP-RNFroz                                 R   N=          18
  0.00000000E+00  0.00000000E+00  0.00000000E+00  0.00000000E+00  0.00000000E+00
  0.00000000E+00  0.00000000E+00  0.00000000E+00  0.00000000E+00  0.00000000E+00
  0.00000000E+00  6.00000000E+01  0.00000000E+00  0.00000000E+00  0.00000000E+00
  0.00000000E+00  0.00000000E+00  0.00000000E+00
ECP-NLP                                    I   N=           9
           2           2           2           2           2           2
           2           2           2
ECP-CLP1                                   R   N=           9
  0.00000000E+00  1.03895157E+03  2.95617380E+01  3.39543510E+02  2.49136960E+01
  1.11699653E+02  1.26243290E+01  1.64498520E+01 -1.65011200E+01
ECP-CLP2                                   R   N=           9
  0.00000000E+00  0.00000000E+00  0.00000000E+00  0.00000000E+00  0.00000000E+00
  0.00000000E+00  0.00000000E+00  0.00000000E+00  0.00000000E+00
ECP-ZLP                                    R   N=           9
  1.00000000E+00  1.40993050E+01  7.04965300E+00  1.01077170E+01  5.05385800E+00
  6.84861800E+00  3.42430900E+00  2.50865100E+00  3.90124500E+00
MxBond                                     I                5
NBond                                      I   N=          18
           2           4           4           2           4           1
           1           1           1           1           1           5
           1           1           4           1           1           1
IBond                                      I   N=          90
           2          12           0           0           0           1
           3           9          10           0           2           4
           5          11           0           3          12           0
           0           0           3           6           7           8